 Entering Gaussian System, Link 0=g16
 Initial command:
 /home/ycarissan/G16_SLATER/g16/l1.exe "/scratch/ycarissan/8782132/Gau-213062.inp" -scrdir="/scratch/ycarissan/8782132/"
 Entering Link 1 = /home/ycarissan/G16_SLATER/g16/l1.exe PID=    213066.
  
 Copyright (c) 1988,1990,1992,1993,1995,1998,2003,2009,2016,
            Gaussian, Inc.  All Rights Reserved.
  
 This is part of the Gaussian(R) 16 program.  It is based on
 the Gaussian(R) 09 system (copyright 2009, Gaussian, Inc.),
 the Gaussian(R) 03 system (copyright 2003, Gaussian, Inc.),
 the Gaussian(R) 98 system (copyright 1998, Gaussian, Inc.),
 the Gaussian(R) 94 system (copyright 1995, Gaussian, Inc.),
 the Gaussian 92(TM) system (copyright 1992, Gaussian, Inc.),
 the Gaussian 90(TM) system (copyright 1990, Gaussian, Inc.),
 the Gaussian 88(TM) system (copyright 1988, Gaussian, Inc.),
 the Gaussian 86(TM) system (copyright 1986, Carnegie Mellon
 University), and the Gaussian 82(TM) system (copyright 1983,
 Carnegie Mellon University). Gaussian is a federally registered
 trademark of Gaussian, Inc.
  
 This software contains proprietary and confidential information,
 including trade secrets, belonging to Gaussian, Inc.
  
 This software is provided under written license and may be
 used, copied, transmitted, or stored only in accord with that
 written license.
  
 The following legend is applicable only to US Government
 contracts under FAR:
  
                    RESTRICTED RIGHTS LEGEND
  
 Use, reproduction and disclosure by the US Government is
 subject to restrictions as set forth in subparagraphs (a)
 and (c) of the Commercial Computer Software - Restricted
 Rights clause in FAR 52.227-19.
  
 Gaussian, Inc.
 340 Quinnipiac St., Bldg. 40, Wallingford CT 06492
  
  
 ---------------------------------------------------------------
 Warning -- This program may not be used in any manner that
 competes with the business of Gaussian, Inc. or will provide
 assistance to any competitor of Gaussian, Inc.  The licensee
 of this program is prohibited from giving any competitor of
 Gaussian, Inc. access to this program.  By using this program,
 the user acknowledges that Gaussian, Inc. is engaged in the
 business of creating and licensing software in the field of
 computational chemistry and represents and warrants to the
 licensee that it is not a competitor of Gaussian, Inc. and that
 it will not use this program in any manner prohibited above.
 ---------------------------------------------------------------
  

 Cite this work as:
 Gaussian 16, Revision A.03,
 M. J. Frisch, G. W. Trucks, H. B. Schlegel, G. E. Scuseria, 
 M. A. Robb, J. R. Cheeseman, G. Scalmani, V. Barone, 
 G. A. Petersson, H. Nakatsuji, X. Li, M. Caricato, A. V. Marenich, 
 J. Bloino, B. G. Janesko, R. Gomperts, B. Mennucci, H. P. Hratchian, 
 J. V. Ortiz, A. F. Izmaylov, J. L. Sonnenberg, D. Williams-Young, 
 F. Ding, F. Lipparini, F. Egidi, J. Goings, B. Peng, A. Petrone, 
 T. Henderson, D. Ranasinghe, V. G. Zakrzewski, J. Gao, N. Rega, 
 G. Zheng, W. Liang, M. Hada, M. Ehara, K. Toyota, R. Fukuda, 
 J. Hasegawa, M. Ishida, T. Nakajima, Y. Honda, O. Kitao, H. Nakai, 
 T. Vreven, K. Throssell, J. A. Montgomery, Jr., J. E. Peralta, 
 F. Ogliaro, M. J. Bearpark, J. J. Heyd, E. N. Brothers, K. N. Kudin, 
 V. N. Staroverov, T. A. Keith, R. Kobayashi, J. Normand, 
 K. Raghavachari, A. P. Rendell, J. C. Burant, S. S. Iyengar, 
 J. Tomasi, M. Cossi, J. M. Millam, M. Klene, C. Adamo, R. Cammi, 
 J. W. Ochterski, R. L. Martin, K. Morokuma, O. Farkas, 
 J. B. Foresman, and D. J. Fox, Gaussian, Inc., Wallingford CT, 2016.
 
 ******************************************
 Gaussian 16:  ES64L-G16RevA.03 25-Dec-2016
                16-Sep-2024 
 ******************************************
 %nproc=16
 Will use up to   16 processors via shared memory.
 %mem=32GB
 ----------------------------------------------------------------------
 #P Ub3lyp/6-311++G(d,p) SCF(Tight) CPHF(Separate) Int(Grid=SuperFine) 
 NMR geom=connectivity
 ----------------------------------------------------------------------
 1/38=1,57=2,172=1/1;
 2/12=2,17=6,18=5,40=1/2;
 3/5=4,6=6,7=1111,11=2,25=1,30=1,74=-5,75=-7,116=2/1,2,3,8;
 4//1;
 5/5=2,32=2,38=5/2;
 8/6=1,10=90,11=11/1;
 10/8=1,13=100,45=16/2;
 6/7=2,8=2,9=2,10=2,28=1/1;
 99/9=1/99;
 Leave Link    1 at Mon Sep 16 07:33:06 2024, MaxMem=  4294967296 cpu:              29.9 elap:               2.1
 (Enter /home/ycarissan/G16_SLATER/g16/l101.exe)
 -----
 Titre
 -----
 Symbolic Z-matrix:
 Charge =  0 Multiplicity = 1
 C                     3.58169  -1.23575   0. 
 C                     2.87979   0.        0. 
 C                     2.89027  -2.42906   0. 
 C                     1.44134   0.        0. 
 C                     3.58169   1.23575   0. 
 C                     0.739    -1.2529    0. 
 C                     0.739     1.2529    0. 
 C                     1.48095  -2.43431   0. 
 C                    -0.739    -1.2529    0. 
 C                     2.89027   2.42906   0. 
 C                     1.48095   2.43431   0. 
 C                    -0.739     1.2529    0. 
 C                    -1.44134   0.        0. 
 C                    -1.48095   2.43431   0. 
 C                    -2.87979   0.        0. 
 C                    -1.48095  -2.43431   0. 
 C                    -3.58169  -1.23575   0. 
 C                    -3.58169   1.23575   0. 
 C                    -2.89027  -2.42906   0. 
 C                    -2.89027   2.42906   0. 
 H                     4.66742  -1.22126   0. 
 H                     3.42515  -3.37335   0. 
 H                     4.66742   1.22126   0. 
 H                     0.97862  -3.39363   0. 
 H                     3.42515   3.37335   0. 
 H                     0.97862   3.39363   0. 
 H                    -0.97862   3.39363   0. 
 H                    -0.97862  -3.39363   0. 
 H                    -4.66742  -1.22126   0. 
 H                    -4.66742   1.22126   0. 
 H                    -3.42515  -3.37335   0. 
 H                    -3.42515   3.37335   0. 
 Bq                   -5.16742  -3.89363   1. 
 Bq                   -5.16742  -3.69363   1. 
 Bq                   -5.16742  -3.49363   1. 
 Bq                   -5.16742  -3.29363   1. 
 Bq                   -5.16742  -3.09363   1. 
 Bq                   -5.16742  -2.89363   1. 
 Bq                   -5.16742  -2.69363   1. 
 Bq                   -5.16742  -2.49363   1. 
 Bq                   -5.16742  -2.29363   1. 
 Bq                   -5.16742  -2.09363   1. 
 Bq                   -5.16742  -1.89363   1. 
 Bq                   -5.16742  -1.69363   1. 
 Bq                   -5.16742  -1.49363   1. 
 Bq                   -5.16742  -1.29363   1. 
 Bq                   -5.16742  -1.09363   1. 
 Bq                   -5.16742  -0.89363   1. 
 Bq                   -5.16742  -0.69363   1. 
 Bq                   -5.16742  -0.49363   1. 
 Bq                   -5.16742  -0.29363   1. 
 Bq                   -5.16742  -0.09363   1. 
 Bq                   -5.16742   0.10637   1. 
 Bq                   -5.16742   0.30637   1. 
 Bq                   -5.16742   0.50637   1. 
 Bq                   -5.16742   0.70637   1. 
 Bq                   -5.16742   0.90637   1. 
 Bq                   -5.16742   1.10637   1. 
 Bq                   -5.16742   1.30637   1. 
 Bq                   -5.16742   1.50637   1. 
 Bq                   -5.16742   1.70637   1. 
 Bq                   -5.16742   1.90637   1. 
 Bq                   -5.16742   2.10637   1. 
 Bq                   -5.16742   2.30637   1. 
 Bq                   -5.16742   2.50637   1. 
 Bq                   -5.16742   2.70637   1. 
 Bq                   -5.16742   2.90637   1. 
 Bq                   -5.16742   3.10637   1. 
 Bq                   -5.16742   3.30637   1. 
 Bq                   -5.16742   3.50637   1. 
 Bq                   -5.16742   3.70637   1. 
 Bq                   -4.96742  -3.89363   1. 
 Bq                   -4.96742  -3.69363   1. 
 Bq                   -4.96742  -3.49363   1. 
 Bq                   -4.96742  -3.29363   1. 
 Bq                   -4.96742  -3.09363   1. 
 Bq                   -4.96742  -2.89363   1. 
 Bq                   -4.96742  -2.69363   1. 
 Bq                   -4.96742  -2.49363   1. 
 Bq                   -4.96742  -2.29363   1. 
 Bq                   -4.96742  -2.09363   1. 
 Bq                   -4.96742  -1.89363   1. 
 Bq                   -4.96742  -1.69363   1. 
 Bq                   -4.96742  -1.49363   1. 
 Bq                   -4.96742  -1.29363   1. 
 Bq                   -4.96742  -1.09363   1. 
 Bq                   -4.96742  -0.89363   1. 
 Bq                   -4.96742  -0.69363   1. 
 Bq                   -4.96742  -0.49363   1. 
 Bq                   -4.96742  -0.29363   1. 
 Bq                   -4.96742  -0.09363   1. 
 Bq                   -4.96742   0.10637   1. 
 Bq                   -4.96742   0.30637   1. 
 Bq                   -4.96742   0.50637   1. 
 Bq                   -4.96742   0.70637   1. 
 Bq                   -4.96742   0.90637   1. 
 Bq                   -4.96742   1.10637   1. 
 Bq                   -4.96742   1.30637   1. 
 Bq                   -4.96742   1.50637   1. 
 Bq                   -4.96742   1.70637   1. 
 Bq                   -4.96742   1.90637   1. 
 Bq                   -4.96742   2.10637   1. 
 Bq                   -4.96742   2.30637   1. 
 Bq                   -4.96742   2.50637   1. 
 Bq                   -4.96742   2.70637   1. 
 Bq                   -4.96742   2.90637   1. 
 Bq                   -4.96742   3.10637   1. 
 Bq                   -4.96742   3.30637   1. 
 Bq                   -4.96742   3.50637   1. 
 Bq                   -4.96742   3.70637   1. 
 Bq                   -4.76742  -3.89363   1. 
 Bq                   -4.76742  -3.69363   1. 
 Bq                   -4.76742  -3.49363   1. 
 Bq                   -4.76742  -3.29363   1. 
 Bq                   -4.76742  -3.09363   1. 
 Bq                   -4.76742  -2.89363   1. 
 Bq                   -4.76742  -2.69363   1. 
 Bq                   -4.76742  -2.49363   1. 
 Bq                   -4.76742  -2.29363   1. 
 Bq                   -4.76742  -2.09363   1. 
 Bq                   -4.76742  -1.89363   1. 
 Bq                   -4.76742  -1.69363   1. 
 Bq                   -4.76742  -1.49363   1. 
 Bq                   -4.76742  -1.29363   1. 
 Bq                   -4.76742  -1.09363   1. 
 Bq                   -4.76742  -0.89363   1. 
 Bq                   -4.76742  -0.69363   1. 
 Bq                   -4.76742  -0.49363   1. 
 Bq                   -4.76742  -0.29363   1. 
 Bq                   -4.76742  -0.09363   1. 
 Bq                   -4.76742   0.10637   1. 
 Bq                   -4.76742   0.30637   1. 
 Bq                   -4.76742   0.50637   1. 
 Bq                   -4.76742   0.70637   1. 
 Bq                   -4.76742   0.90637   1. 
 Bq                   -4.76742   1.10637   1. 
 Bq                   -4.76742   1.30637   1. 
 Bq                   -4.76742   1.50637   1. 
 Bq                   -4.76742   1.70637   1. 
 Bq                   -4.76742   1.90637   1. 
 Bq                   -4.76742   2.10637   1. 
 Bq                   -4.76742   2.30637   1. 
 Bq                   -4.76742   2.50637   1. 
 Bq                   -4.76742   2.70637   1. 
 Bq                   -4.76742   2.90637   1. 
 Bq                   -4.76742   3.10637   1. 
 Bq                   -4.76742   3.30637   1. 
 Bq                   -4.76742   3.50637   1. 
 Bq                   -4.76742   3.70637   1. 
 Bq                   -4.56742  -3.89363   1. 
 Bq                   -4.56742  -3.69363   1. 
 Bq                   -4.56742  -3.49363   1. 
 Bq                   -4.56742  -3.29363   1. 
 Bq                   -4.56742  -3.09363   1. 
 Bq                   -4.56742  -2.89363   1. 
 Bq                   -4.56742  -2.69363   1. 
 Bq                   -4.56742  -2.49363   1. 
 Bq                   -4.56742  -2.29363   1. 
 Bq                   -4.56742  -2.09363   1. 
 Bq                   -4.56742  -1.89363   1. 
 Bq                   -4.56742  -1.69363   1. 
 Bq                   -4.56742  -1.49363   1. 
 Bq                   -4.56742  -1.29363   1. 
 Bq                   -4.56742  -1.09363   1. 
 Bq                   -4.56742  -0.89363   1. 
 Bq                   -4.56742  -0.69363   1. 
 Bq                   -4.56742  -0.49363   1. 
 Bq                   -4.56742  -0.29363   1. 
 Bq                   -4.56742  -0.09363   1. 
 Bq                   -4.56742   0.10637   1. 
 Bq                   -4.56742   0.30637   1. 
 Bq                   -4.56742   0.50637   1. 
 Bq                   -4.56742   0.70637   1. 
 Bq                   -4.56742   0.90637   1. 
 Bq                   -4.56742   1.10637   1. 
 Bq                   -4.56742   1.30637   1. 
 Bq                   -4.56742   1.50637   1. 
 Bq                   -4.56742   1.70637   1. 
 Bq                   -4.56742   1.90637   1. 
 Bq                   -4.56742   2.10637   1. 
 Bq                   -4.56742   2.30637   1. 
 Bq                   -4.56742   2.50637   1. 
 Bq                   -4.56742   2.70637   1. 
 Bq                   -4.56742   2.90637   1. 
 Bq                   -4.56742   3.10637   1. 
 Bq                   -4.56742   3.30637   1. 
 Bq                   -4.56742   3.50637   1. 
 Bq                   -4.56742   3.70637   1. 
 Bq                   -4.36742  -3.89363   1. 
 Bq                   -4.36742  -3.69363   1. 
 Bq                   -4.36742  -3.49363   1. 
 Bq                   -4.36742  -3.29363   1. 
 Bq                   -4.36742  -3.09363   1. 
 Bq                   -4.36742  -2.89363   1. 
 Bq                   -4.36742  -2.69363   1. 
 Bq                   -4.36742  -2.49363   1. 
 Bq                   -4.36742  -2.29363   1. 
 Bq                   -4.36742  -2.09363   1. 
 Bq                   -4.36742  -1.89363   1. 
 Bq                   -4.36742  -1.69363   1. 
 Bq                   -4.36742  -1.49363   1. 
 Bq                   -4.36742  -1.29363   1. 
 Bq                   -4.36742  -1.09363   1. 
 Bq                   -4.36742  -0.89363   1. 
 Bq                   -4.36742  -0.69363   1. 
 Bq                   -4.36742  -0.49363   1. 
 Bq                   -4.36742  -0.29363   1. 
 Bq                   -4.36742  -0.09363   1. 
 Bq                   -4.36742   0.10637   1. 
 Bq                   -4.36742   0.30637   1. 
 Bq                   -4.36742   0.50637   1. 
 Bq                   -4.36742   0.70637   1. 
 Bq                   -4.36742   0.90637   1. 
 Bq                   -4.36742   1.10637   1. 
 Bq                   -4.36742   1.30637   1. 
 Bq                   -4.36742   1.50637   1. 
 Bq                   -4.36742   1.70637   1. 
 Bq                   -4.36742   1.90637   1. 
 Bq                   -4.36742   2.10637   1. 
 Bq                   -4.36742   2.30637   1. 
 Bq                   -4.36742   2.50637   1. 
 Bq                   -4.36742   2.70637   1. 
 Bq                   -4.36742   2.90637   1. 
 Bq                   -4.36742   3.10637   1. 
 Bq                   -4.36742   3.30637   1. 
 Bq                   -4.36742   3.50637   1. 
 Bq                   -4.36742   3.70637   1. 
 Bq                   -4.16742  -3.89363   1. 
 Bq                   -4.16742  -3.69363   1. 
 Bq                   -4.16742  -3.49363   1. 
 Bq                   -4.16742  -3.29363   1. 
 Bq                   -4.16742  -3.09363   1. 
 Bq                   -4.16742  -2.89363   1. 
 Bq                   -4.16742  -2.69363   1. 
 Bq                   -4.16742  -2.49363   1. 
 Bq                   -4.16742  -2.29363   1. 
 Bq                   -4.16742  -2.09363   1. 
 Bq                   -4.16742  -1.89363   1. 
 Bq                   -4.16742  -1.69363   1. 
 Bq                   -4.16742  -1.49363   1. 
 Bq                   -4.16742  -1.29363   1. 
 Bq                   -4.16742  -1.09363   1. 
 Bq                   -4.16742  -0.89363   1. 
 Bq                   -4.16742  -0.69363   1. 
 Bq                   -4.16742  -0.49363   1. 
 Bq                   -4.16742  -0.29363   1. 
 Bq                   -4.16742  -0.09363   1. 
 Bq                   -4.16742   0.10637   1. 
 Bq                   -4.16742   0.30637   1. 
 Bq                   -4.16742   0.50637   1. 
 Bq                   -4.16742   0.70637   1. 
 Bq                   -4.16742   0.90637   1. 
 Bq                   -4.16742   1.10637   1. 
 Bq                   -4.16742   1.30637   1. 
 Bq                   -4.16742   1.50637   1. 
 Bq                   -4.16742   1.70637   1. 
 Bq                   -4.16742   1.90637   1. 
 Bq                   -4.16742   2.10637   1. 
 Bq                   -4.16742   2.30637   1. 
 Bq                   -4.16742   2.50637   1. 
 Bq                   -4.16742   2.70637   1. 
 Bq                   -4.16742   2.90637   1. 
 Bq                   -4.16742   3.10637   1. 
 Bq                   -4.16742   3.30637   1. 
 Bq                   -4.16742   3.50637   1. 
 Bq                   -4.16742   3.70637   1. 
 Bq                   -3.96742  -3.89363   1. 
 Bq                   -3.96742  -3.69363   1. 
 Bq                   -3.96742  -3.49363   1. 
 Bq                   -3.96742  -3.29363   1. 
 Bq                   -3.96742  -3.09363   1. 
 Bq                   -3.96742  -2.89363   1. 
 Bq                   -3.96742  -2.69363   1. 
 Bq                   -3.96742  -2.49363   1. 
 Bq                   -3.96742  -2.29363   1. 
 Bq                   -3.96742  -2.09363   1. 
 Bq                   -3.96742  -1.89363   1. 
 Bq                   -3.96742  -1.69363   1. 
 Bq                   -3.96742  -1.49363   1. 
 Bq                   -3.96742  -1.29363   1. 
 Bq                   -3.96742  -1.09363   1. 
 Bq                   -3.96742  -0.89363   1. 
 Bq                   -3.96742  -0.69363   1. 
 Bq                   -3.96742  -0.49363   1. 
 Bq                   -3.96742  -0.29363   1. 
 Bq                   -3.96742  -0.09363   1. 
 Bq                   -3.96742   0.10637   1. 
 Bq                   -3.96742   0.30637   1. 
 Bq                   -3.96742   0.50637   1. 
 Bq                   -3.96742   0.70637   1. 
 Bq                   -3.96742   0.90637   1. 
 Bq                   -3.96742   1.10637   1. 
 Bq                   -3.96742   1.30637   1. 
 Bq                   -3.96742   1.50637   1. 
 Bq                   -3.96742   1.70637   1. 
 Bq                   -3.96742   1.90637   1. 
 Bq                   -3.96742   2.10637   1. 
 Bq                   -3.96742   2.30637   1. 
 Bq                   -3.96742   2.50637   1. 
 Bq                   -3.96742   2.70637   1. 
 Bq                   -3.96742   2.90637   1. 
 Bq                   -3.96742   3.10637   1. 
 Bq                   -3.96742   3.30637   1. 
 Bq                   -3.96742   3.50637   1. 
 Bq                   -3.96742   3.70637   1. 
 Bq                   -3.76742  -3.89363   1. 
 Bq                   -3.76742  -3.69363   1. 
 Bq                   -3.76742  -3.49363   1. 
 Bq                   -3.76742  -3.29363   1. 
 Bq                   -3.76742  -3.09363   1. 
 Bq                   -3.76742  -2.89363   1. 
 Bq                   -3.76742  -2.69363   1. 
 Bq                   -3.76742  -2.49363   1. 
 Bq                   -3.76742  -2.29363   1. 
 Bq                   -3.76742  -2.09363   1. 
 Bq                   -3.76742  -1.89363   1. 
 Bq                   -3.76742  -1.69363   1. 
 Bq                   -3.76742  -1.49363   1. 
 Bq                   -3.76742  -1.29363   1. 
 Bq                   -3.76742  -1.09363   1. 
 Bq                   -3.76742  -0.89363   1. 
 Bq                   -3.76742  -0.69363   1. 
 Bq                   -3.76742  -0.49363   1. 
 Bq                   -3.76742  -0.29363   1. 
 Bq                   -3.76742  -0.09363   1. 
 Bq                   -3.76742   0.10637   1. 
 Bq                   -3.76742   0.30637   1. 
 Bq                   -3.76742   0.50637   1. 
 Bq                   -3.76742   0.70637   1. 
 Bq                   -3.76742   0.90637   1. 
 Bq                   -3.76742   1.10637   1. 
 Bq                   -3.76742   1.30637   1. 
 Bq                   -3.76742   1.50637   1. 
 Bq                   -3.76742   1.70637   1. 
 Bq                   -3.76742   1.90637   1. 
 Bq                   -3.76742   2.10637   1. 
 Bq                   -3.76742   2.30637   1. 
 Bq                   -3.76742   2.50637   1. 
 Bq                   -3.76742   2.70637   1. 
 Bq                   -3.76742   2.90637   1. 
 Bq                   -3.76742   3.10637   1. 
 Bq                   -3.76742   3.30637   1. 
 Bq                   -3.76742   3.50637   1. 
 Bq                   -3.76742   3.70637   1. 
 Bq                   -3.56742  -3.89363   1. 
 Bq                   -3.56742  -3.69363   1. 
 Bq                   -3.56742  -3.49363   1. 
 Bq                   -3.56742  -3.29363   1. 
 Bq                   -3.56742  -3.09363   1. 
 Bq                   -3.56742  -2.89363   1. 
 Bq                   -3.56742  -2.69363   1. 
 Bq                   -3.56742  -2.49363   1. 
 Bq                   -3.56742  -2.29363   1. 
 Bq                   -3.56742  -2.09363   1. 
 Bq                   -3.56742  -1.89363   1. 
 Bq                   -3.56742  -1.69363   1. 
 Bq                   -3.56742  -1.49363   1. 
 Bq                   -3.56742  -1.29363   1. 
 Bq                   -3.56742  -1.09363   1. 
 Bq                   -3.56742  -0.89363   1. 
 Bq                   -3.56742  -0.69363   1. 
 Bq                   -3.56742  -0.49363   1. 
 Bq                   -3.56742  -0.29363   1. 
 Bq                   -3.56742  -0.09363   1. 
 Bq                   -3.56742   0.10637   1. 
 Bq                   -3.56742   0.30637   1. 
 Bq                   -3.56742   0.50637   1. 
 Bq                   -3.56742   0.70637   1. 
 Bq                   -3.56742   0.90637   1. 
 Bq                   -3.56742   1.10637   1. 
 Bq                   -3.56742   1.30637   1. 
 Bq                   -3.56742   1.50637   1. 
 Bq                   -3.56742   1.70637   1. 
 Bq                   -3.56742   1.90637   1. 
 Bq                   -3.56742   2.10637   1. 
 Bq                   -3.56742   2.30637   1. 
 Bq                   -3.56742   2.50637   1. 
 Bq                   -3.56742   2.70637   1. 
 Bq                   -3.56742   2.90637   1. 
 Bq                   -3.56742   3.10637   1. 
 Bq                   -3.56742   3.30637   1. 
 Bq                   -3.56742   3.50637   1. 
 Bq                   -3.56742   3.70637   1. 
 Bq                   -3.36742  -3.89363   1. 
 Bq                   -3.36742  -3.69363   1. 
 Bq                   -3.36742  -3.49363   1. 
 Bq                   -3.36742  -3.29363   1. 
 Bq                   -3.36742  -3.09363   1. 
 Bq                   -3.36742  -2.89363   1. 
 Bq                   -3.36742  -2.69363   1. 
 Bq                   -3.36742  -2.49363   1. 
 Bq                   -3.36742  -2.29363   1. 
 Bq                   -3.36742  -2.09363   1. 
 Bq                   -3.36742  -1.89363   1. 
 Bq                   -3.36742  -1.69363   1. 
 Bq                   -3.36742  -1.49363   1. 
 Bq                   -3.36742  -1.29363   1. 
 Bq                   -3.36742  -1.09363   1. 
 Bq                   -3.36742  -0.89363   1. 
 Bq                   -3.36742  -0.69363   1. 
 Bq                   -3.36742  -0.49363   1. 
 Bq                   -3.36742  -0.29363   1. 
 Bq                   -3.36742  -0.09363   1. 
 Bq                   -3.36742   0.10637   1. 
 Bq                   -3.36742   0.30637   1. 
 Bq                   -3.36742   0.50637   1. 
 Bq                   -3.36742   0.70637   1. 
 Bq                   -3.36742   0.90637   1. 
 Bq                   -3.36742   1.10637   1. 
 Bq                   -3.36742   1.30637   1. 
 Bq                   -3.36742   1.50637   1. 
 Bq                   -3.36742   1.70637   1. 
 Bq                   -3.36742   1.90637   1. 
 Bq                   -3.36742   2.10637   1. 
 Bq                   -3.36742   2.30637   1. 
 Bq                   -3.36742   2.50637   1. 
 Bq                   -3.36742   2.70637   1. 
 Bq                   -3.36742   2.90637   1. 
 Bq                   -3.36742   3.10637   1. 
 Bq                   -3.36742   3.30637   1. 
 Bq                   -3.36742   3.50637   1. 
 Bq                   -3.36742   3.70637   1. 
 Bq                   -3.16742  -3.89363   1. 
 Bq                   -3.16742  -3.69363   1. 
 Bq                   -3.16742  -3.49363   1. 
 Bq                   -3.16742  -3.29363   1. 
 Bq                   -3.16742  -3.09363   1. 
 Bq                   -3.16742  -2.89363   1. 
 Bq                   -3.16742  -2.69363   1. 
 Bq                   -3.16742  -2.49363   1. 
 Bq                   -3.16742  -2.29363   1. 
 Bq                   -3.16742  -2.09363   1. 
 Bq                   -3.16742  -1.89363   1. 
 Bq                   -3.16742  -1.69363   1. 
 Bq                   -3.16742  -1.49363   1. 
 Bq                   -3.16742  -1.29363   1. 
 Bq                   -3.16742  -1.09363   1. 
 Bq                   -3.16742  -0.89363   1. 
 Bq                   -3.16742  -0.69363   1. 
 Bq                   -3.16742  -0.49363   1. 
 Bq                   -3.16742  -0.29363   1. 
 Bq                   -3.16742  -0.09363   1. 
 Bq                   -3.16742   0.10637   1. 
 Bq                   -3.16742   0.30637   1. 
 Bq                   -3.16742   0.50637   1. 
 Bq                   -3.16742   0.70637   1. 
 Bq                   -3.16742   0.90637   1. 
 Bq                   -3.16742   1.10637   1. 
 Bq                   -3.16742   1.30637   1. 
 Bq                   -3.16742   1.50637   1. 
 Bq                   -3.16742   1.70637   1. 
 Bq                   -3.16742   1.90637   1. 
 Bq                   -3.16742   2.10637   1. 
 Bq                   -3.16742   2.30637   1. 
 Bq                   -3.16742   2.50637   1. 
 Bq                   -3.16742   2.70637   1. 
 Bq                   -3.16742   2.90637   1. 
 Bq                   -3.16742   3.10637   1. 
 Bq                   -3.16742   3.30637   1. 
 Bq                   -3.16742   3.50637   1. 
 Bq                   -3.16742   3.70637   1. 
 Bq                   -2.96742  -3.89363   1. 
 Bq                   -2.96742  -3.69363   1. 
 Bq                   -2.96742  -3.49363   1. 
 Bq                   -2.96742  -3.29363   1. 
 Bq                   -2.96742  -3.09363   1. 
 Bq                   -2.96742  -2.89363   1. 
 Bq                   -2.96742  -2.69363   1. 
 Bq                   -2.96742  -2.49363   1. 
 Bq                   -2.96742  -2.29363   1. 
 Bq                   -2.96742  -2.09363   1. 
 Bq                   -2.96742  -1.89363   1. 
 Bq                   -2.96742  -1.69363   1. 
 Bq                   -2.96742  -1.49363   1. 
 Bq                   -2.96742  -1.29363   1. 
 Bq                   -2.96742  -1.09363   1. 
 Bq                   -2.96742  -0.89363   1. 
 Bq                   -2.96742  -0.69363   1. 
 Bq                   -2.96742  -0.49363   1. 
 Bq                   -2.96742  -0.29363   1. 
 Bq                   -2.96742  -0.09363   1. 
 Bq                   -2.96742   0.10637   1. 
 Bq                   -2.96742   0.30637   1. 
 Bq                   -2.96742   0.50637   1. 
 Bq                   -2.96742   0.70637   1. 
 Bq                   -2.96742   0.90637   1. 
 Bq                   -2.96742   1.10637   1. 
 Bq                   -2.96742   1.30637   1. 
 Bq                   -2.96742   1.50637   1. 
 Bq                   -2.96742   1.70637   1. 
 Bq                   -2.96742   1.90637   1. 
 Bq                   -2.96742   2.10637   1. 
 Bq                   -2.96742   2.30637   1. 
 Bq                   -2.96742   2.50637   1. 
 Bq                   -2.96742   2.70637   1. 
 Bq                   -2.96742   2.90637   1. 
 Bq                   -2.96742   3.10637   1. 
 Bq                   -2.96742   3.30637   1. 
 Bq                   -2.96742   3.50637   1. 
 Bq                   -2.96742   3.70637   1. 
 Bq                   -2.76742  -3.89363   1. 
 Bq                   -2.76742  -3.69363   1. 
 Bq                   -2.76742  -3.49363   1. 
 Bq                   -2.76742  -3.29363   1. 
 Bq                   -2.76742  -3.09363   1. 
 Bq                   -2.76742  -2.89363   1. 
 Bq                   -2.76742  -2.69363   1. 
 Bq                   -2.76742  -2.49363   1. 
 Bq                   -2.76742  -2.29363   1. 
 Bq                   -2.76742  -2.09363   1. 
 Bq                   -2.76742  -1.89363   1. 
 Bq                   -2.76742  -1.69363   1. 
 Bq                   -2.76742  -1.49363   1. 
 Bq                   -2.76742  -1.29363   1. 
 Bq                   -2.76742  -1.09363   1. 
 Bq                   -2.76742  -0.89363   1. 
 Bq                   -2.76742  -0.69363   1. 
 Bq                   -2.76742  -0.49363   1. 
 Bq                   -2.76742  -0.29363   1. 
 Bq                   -2.76742  -0.09363   1. 
 Bq                   -2.76742   0.10637   1. 
 Bq                   -2.76742   0.30637   1. 
 Bq                   -2.76742   0.50637   1. 
 Bq                   -2.76742   0.70637   1. 
 Bq                   -2.76742   0.90637   1. 
 Bq                   -2.76742   1.10637   1. 
 Bq                   -2.76742   1.30637   1. 
 Bq                   -2.76742   1.50637   1. 
 Bq                   -2.76742   1.70637   1. 
 Bq                   -2.76742   1.90637   1. 
 Bq                   -2.76742   2.10637   1. 
 Bq                   -2.76742   2.30637   1. 
 Bq                   -2.76742   2.50637   1. 
 Bq                   -2.76742   2.70637   1. 
 Bq                   -2.76742   2.90637   1. 
 Bq                   -2.76742   3.10637   1. 
 Bq                   -2.76742   3.30637   1. 
 Bq                   -2.76742   3.50637   1. 
 Bq                   -2.76742   3.70637   1. 
 Bq                   -2.56742  -3.89363   1. 
 Bq                   -2.56742  -3.69363   1. 
 Bq                   -2.56742  -3.49363   1. 
 Bq                   -2.56742  -3.29363   1. 
 Bq                   -2.56742  -3.09363   1. 
 Bq                   -2.56742  -2.89363   1. 
 Bq                   -2.56742  -2.69363   1. 
 Bq                   -2.56742  -2.49363   1. 
 Bq                   -2.56742  -2.29363   1. 
 Bq                   -2.56742  -2.09363   1. 
 Bq                   -2.56742  -1.89363   1. 
 Bq                   -2.56742  -1.69363   1. 
 Bq                   -2.56742  -1.49363   1. 
 Bq                   -2.56742  -1.29363   1. 
 Bq                   -2.56742  -1.09363   1. 
 Bq                   -2.56742  -0.89363   1. 
 Bq                   -2.56742  -0.69363   1. 
 Bq                   -2.56742  -0.49363   1. 
 Bq                   -2.56742  -0.29363   1. 
 Bq                   -2.56742  -0.09363   1. 
 Bq                   -2.56742   0.10637   1. 
 Bq                   -2.56742   0.30637   1. 
 Bq                   -2.56742   0.50637   1. 
 Bq                   -2.56742   0.70637   1. 
 Bq                   -2.56742   0.90637   1. 
 Bq                   -2.56742   1.10637   1. 
 Bq                   -2.56742   1.30637   1. 
 Bq                   -2.56742   1.50637   1. 
 Bq                   -2.56742   1.70637   1. 
 Bq                   -2.56742   1.90637   1. 
 Bq                   -2.56742   2.10637   1. 
 Bq                   -2.56742   2.30637   1. 
 Bq                   -2.56742   2.50637   1. 
 Bq                   -2.56742   2.70637   1. 
 Bq                   -2.56742   2.90637   1. 
 Bq                   -2.56742   3.10637   1. 
 Bq                   -2.56742   3.30637   1. 
 Bq                   -2.56742   3.50637   1. 
 Bq                   -2.56742   3.70637   1. 
 Bq                   -2.36742  -3.89363   1. 
 Bq                   -2.36742  -3.69363   1. 
 Bq                   -2.36742  -3.49363   1. 
 Bq                   -2.36742  -3.29363   1. 
 Bq                   -2.36742  -3.09363   1. 
 Bq                   -2.36742  -2.89363   1. 
 Bq                   -2.36742  -2.69363   1. 
 Bq                   -2.36742  -2.49363   1. 
 Bq                   -2.36742  -2.29363   1. 
 Bq                   -2.36742  -2.09363   1. 
 Bq                   -2.36742  -1.89363   1. 
 Bq                   -2.36742  -1.69363   1. 
 Bq                   -2.36742  -1.49363   1. 
 Bq                   -2.36742  -1.29363   1. 
 Bq                   -2.36742  -1.09363   1. 
 Bq                   -2.36742  -0.89363   1. 
 Bq                   -2.36742  -0.69363   1. 
 Bq                   -2.36742  -0.49363   1. 
 Bq                   -2.36742  -0.29363   1. 
 Bq                   -2.36742  -0.09363   1. 
 Bq                   -2.36742   0.10637   1. 
 Bq                   -2.36742   0.30637   1. 
 Bq                   -2.36742   0.50637   1. 
 Bq                   -2.36742   0.70637   1. 
 Bq                   -2.36742   0.90637   1. 
 Bq                   -2.36742   1.10637   1. 
 Bq                   -2.36742   1.30637   1. 
 Bq                   -2.36742   1.50637   1. 
 Bq                   -2.36742   1.70637   1. 
 Bq                   -2.36742   1.90637   1. 
 Bq                   -2.36742   2.10637   1. 
 Bq                   -2.36742   2.30637   1. 
 Bq                   -2.36742   2.50637   1. 
 Bq                   -2.36742   2.70637   1. 
 Bq                   -2.36742   2.90637   1. 
 Bq                   -2.36742   3.10637   1. 
 Bq                   -2.36742   3.30637   1. 
 Bq                   -2.36742   3.50637   1. 
 Bq                   -2.36742   3.70637   1. 
 Bq                   -2.16742  -3.89363   1. 
 Bq                   -2.16742  -3.69363   1. 
 Bq                   -2.16742  -3.49363   1. 
 Bq                   -2.16742  -3.29363   1. 
 Bq                   -2.16742  -3.09363   1. 
 Bq                   -2.16742  -2.89363   1. 
 Bq                   -2.16742  -2.69363   1. 
 Bq                   -2.16742  -2.49363   1. 
 Bq                   -2.16742  -2.29363   1. 
 Bq                   -2.16742  -2.09363   1. 
 Bq                   -2.16742  -1.89363   1. 
 Bq                   -2.16742  -1.69363   1. 
 Bq                   -2.16742  -1.49363   1. 
 Bq                   -2.16742  -1.29363   1. 
 Bq                   -2.16742  -1.09363   1. 
 Bq                   -2.16742  -0.89363   1. 
 Bq                   -2.16742  -0.69363   1. 
 Bq                   -2.16742  -0.49363   1. 
 Bq                   -2.16742  -0.29363   1. 
 Bq                   -2.16742  -0.09363   1. 
 Bq                   -2.16742   0.10637   1. 
 Bq                   -2.16742   0.30637   1. 
 Bq                   -2.16742   0.50637   1. 
 Bq                   -2.16742   0.70637   1. 
 Bq                   -2.16742   0.90637   1. 
 Bq                   -2.16742   1.10637   1. 
 Bq                   -2.16742   1.30637   1. 
 Bq                   -2.16742   1.50637   1. 
 Bq                   -2.16742   1.70637   1. 
 Bq                   -2.16742   1.90637   1. 
 Bq                   -2.16742   2.10637   1. 
 Bq                   -2.16742   2.30637   1. 
 Bq                   -2.16742   2.50637   1. 
 Bq                   -2.16742   2.70637   1. 
 Bq                   -2.16742   2.90637   1. 
 Bq                   -2.16742   3.10637   1. 
 Bq                   -2.16742   3.30637   1. 
 Bq                   -2.16742   3.50637   1. 
 Bq                   -2.16742   3.70637   1. 
 Bq                   -1.96742  -3.89363   1. 
 Bq                   -1.96742  -3.69363   1. 
 Bq                   -1.96742  -3.49363   1. 
 Bq                   -1.96742  -3.29363   1. 
 Bq                   -1.96742  -3.09363   1. 
 Bq                   -1.96742  -2.89363   1. 
 Bq                   -1.96742  -2.69363   1. 
 Bq                   -1.96742  -2.49363   1. 
 Bq                   -1.96742  -2.29363   1. 
 Bq                   -1.96742  -2.09363   1. 
 Bq                   -1.96742  -1.89363   1. 
 Bq                   -1.96742  -1.69363   1. 
 Bq                   -1.96742  -1.49363   1. 
 Bq                   -1.96742  -1.29363   1. 
 Bq                   -1.96742  -1.09363   1. 
 Bq                   -1.96742  -0.89363   1. 
 Bq                   -1.96742  -0.69363   1. 
 Bq                   -1.96742  -0.49363   1. 
 Bq                   -1.96742  -0.29363   1. 
 Bq                   -1.96742  -0.09363   1. 
 Bq                   -1.96742   0.10637   1. 
 Bq                   -1.96742   0.30637   1. 
 Bq                   -1.96742   0.50637   1. 
 Bq                   -1.96742   0.70637   1. 
 Bq                   -1.96742   0.90637   1. 
 Bq                   -1.96742   1.10637   1. 
 Bq                   -1.96742   1.30637   1. 
 Bq                   -1.96742   1.50637   1. 
 Bq                   -1.96742   1.70637   1. 
 Bq                   -1.96742   1.90637   1. 
 Bq                   -1.96742   2.10637   1. 
 Bq                   -1.96742   2.30637   1. 
 Bq                   -1.96742   2.50637   1. 
 Bq                   -1.96742   2.70637   1. 
 Bq                   -1.96742   2.90637   1. 
 Bq                   -1.96742   3.10637   1. 
 Bq                   -1.96742   3.30637   1. 
 Bq                   -1.96742   3.50637   1. 
 Bq                   -1.96742   3.70637   1. 
 Bq                   -1.76742  -3.89363   1. 
 Bq                   -1.76742  -3.69363   1. 
 Bq                   -1.76742  -3.49363   1. 
 Bq                   -1.76742  -3.29363   1. 
 Bq                   -1.76742  -3.09363   1. 
 Bq                   -1.76742  -2.89363   1. 
 Bq                   -1.76742  -2.69363   1. 
 Bq                   -1.76742  -2.49363   1. 
 Bq                   -1.76742  -2.29363   1. 
 Bq                   -1.76742  -2.09363   1. 
 Bq                   -1.76742  -1.89363   1. 
 Bq                   -1.76742  -1.69363   1. 
 Bq                   -1.76742  -1.49363   1. 
 Bq                   -1.76742  -1.29363   1. 
 Bq                   -1.76742  -1.09363   1. 
 Bq                   -1.76742  -0.89363   1. 
 Bq                   -1.76742  -0.69363   1. 
 Bq                   -1.76742  -0.49363   1. 
 Bq                   -1.76742  -0.29363   1. 
 Bq                   -1.76742  -0.09363   1. 
 Bq                   -1.76742   0.10637   1. 
 Bq                   -1.76742   0.30637   1. 
 Bq                   -1.76742   0.50637   1. 
 Bq                   -1.76742   0.70637   1. 
 Bq                   -1.76742   0.90637   1. 
 Bq                   -1.76742   1.10637   1. 
 Bq                   -1.76742   1.30637   1. 
 Bq                   -1.76742   1.50637   1. 
 Bq                   -1.76742   1.70637   1. 
 Bq                   -1.76742   1.90637   1. 
 Bq                   -1.76742   2.10637   1. 
 Bq                   -1.76742   2.30637   1. 
 Bq                   -1.76742   2.50637   1. 
 Bq                   -1.76742   2.70637   1. 
 Bq                   -1.76742   2.90637   1. 
 Bq                   -1.76742   3.10637   1. 
 Bq                   -1.76742   3.30637   1. 
 Bq                   -1.76742   3.50637   1. 
 Bq                   -1.76742   3.70637   1. 
 Bq                   -1.56742  -3.89363   1. 
 Bq                   -1.56742  -3.69363   1. 
 Bq                   -1.56742  -3.49363   1. 
 Bq                   -1.56742  -3.29363   1. 
 Bq                   -1.56742  -3.09363   1. 
 Bq                   -1.56742  -2.89363   1. 
 Bq                   -1.56742  -2.69363   1. 
 Bq                   -1.56742  -2.49363   1. 
 Bq                   -1.56742  -2.29363   1. 
 Bq                   -1.56742  -2.09363   1. 
 Bq                   -1.56742  -1.89363   1. 
 Bq                   -1.56742  -1.69363   1. 
 Bq                   -1.56742  -1.49363   1. 
 Bq                   -1.56742  -1.29363   1. 
 Bq                   -1.56742  -1.09363   1. 
 Bq                   -1.56742  -0.89363   1. 
 Bq                   -1.56742  -0.69363   1. 
 Bq                   -1.56742  -0.49363   1. 
 Bq                   -1.56742  -0.29363   1. 
 Bq                   -1.56742  -0.09363   1. 
 Bq                   -1.56742   0.10637   1. 
 Bq                   -1.56742   0.30637   1. 
 Bq                   -1.56742   0.50637   1. 
 Bq                   -1.56742   0.70637   1. 
 Bq                   -1.56742   0.90637   1. 
 Bq                   -1.56742   1.10637   1. 
 Bq                   -1.56742   1.30637   1. 
 Bq                   -1.56742   1.50637   1. 
 Bq                   -1.56742   1.70637   1. 
 Bq                   -1.56742   1.90637   1. 
 Bq                   -1.56742   2.10637   1. 
 Bq                   -1.56742   2.30637   1. 
 Bq                   -1.56742   2.50637   1. 
 Bq                   -1.56742   2.70637   1. 
 Bq                   -1.56742   2.90637   1. 
 Bq                   -1.56742   3.10637   1. 
 Bq                   -1.56742   3.30637   1. 
 Bq                   -1.56742   3.50637   1. 
 Bq                   -1.56742   3.70637   1. 
 Bq                   -1.36742  -3.89363   1. 
 Bq                   -1.36742  -3.69363   1. 
 Bq                   -1.36742  -3.49363   1. 
 Bq                   -1.36742  -3.29363   1. 
 Bq                   -1.36742  -3.09363   1. 
 Bq                   -1.36742  -2.89363   1. 
 Bq                   -1.36742  -2.69363   1. 
 Bq                   -1.36742  -2.49363   1. 
 Bq                   -1.36742  -2.29363   1. 
 Bq                   -1.36742  -2.09363   1. 
 Bq                   -1.36742  -1.89363   1. 
 Bq                   -1.36742  -1.69363   1. 
 Bq                   -1.36742  -1.49363   1. 
 Bq                   -1.36742  -1.29363   1. 
 Bq                   -1.36742  -1.09363   1. 
 Bq                   -1.36742  -0.89363   1. 
 Bq                   -1.36742  -0.69363   1. 
 Bq                   -1.36742  -0.49363   1. 
 Bq                   -1.36742  -0.29363   1. 
 Bq                   -1.36742  -0.09363   1. 
 Bq                   -1.36742   0.10637   1. 
 Bq                   -1.36742   0.30637   1. 
 Bq                   -1.36742   0.50637   1. 
 Bq                   -1.36742   0.70637   1. 
 Bq                   -1.36742   0.90637   1. 
 Bq                   -1.36742   1.10637   1. 
 Bq                   -1.36742   1.30637   1. 
 Bq                   -1.36742   1.50637   1. 
 Bq                   -1.36742   1.70637   1. 
 Bq                   -1.36742   1.90637   1. 
 Bq                   -1.36742   2.10637   1. 
 Bq                   -1.36742   2.30637   1. 
 Bq                   -1.36742   2.50637   1. 
 Bq                   -1.36742   2.70637   1. 
 Bq                   -1.36742   2.90637   1. 
 Bq                   -1.36742   3.10637   1. 
 Bq                   -1.36742   3.30637   1. 
 Bq                   -1.36742   3.50637   1. 
 Bq                   -1.36742   3.70637   1. 
 Bq                   -1.16742  -3.89363   1. 
 Bq                   -1.16742  -3.69363   1. 
 Bq                   -1.16742  -3.49363   1. 
 Bq                   -1.16742  -3.29363   1. 
 Bq                   -1.16742  -3.09363   1. 
 Bq                   -1.16742  -2.89363   1. 
 Bq                   -1.16742  -2.69363   1. 
 Bq                   -1.16742  -2.49363   1. 
 Bq                   -1.16742  -2.29363   1. 
 Bq                   -1.16742  -2.09363   1. 
 Bq                   -1.16742  -1.89363   1. 
 Bq                   -1.16742  -1.69363   1. 
 Bq                   -1.16742  -1.49363   1. 
 Bq                   -1.16742  -1.29363   1. 
 Bq                   -1.16742  -1.09363   1. 
 Bq                   -1.16742  -0.89363   1. 
 Bq                   -1.16742  -0.69363   1. 
 Bq                   -1.16742  -0.49363   1. 
 Bq                   -1.16742  -0.29363   1. 
 Bq                   -1.16742  -0.09363   1. 
 Bq                   -1.16742   0.10637   1. 
 Bq                   -1.16742   0.30637   1. 
 Bq                   -1.16742   0.50637   1. 
 Bq                   -1.16742   0.70637   1. 
 Bq                   -1.16742   0.90637   1. 
 Bq                   -1.16742   1.10637   1. 
 Bq                   -1.16742   1.30637   1. 
 Bq                   -1.16742   1.50637   1. 
 Bq                   -1.16742   1.70637   1. 
 Bq                   -1.16742   1.90637   1. 
 Bq                   -1.16742   2.10637   1. 
 Bq                   -1.16742   2.30637   1. 
 Bq                   -1.16742   2.50637   1. 
 Bq                   -1.16742   2.70637   1. 
 Bq                   -1.16742   2.90637   1. 
 Bq                   -1.16742   3.10637   1. 
 Bq                   -1.16742   3.30637   1. 
 Bq                   -1.16742   3.50637   1. 
 Bq                   -1.16742   3.70637   1. 
 Bq                   -0.96742  -3.89363   1. 
 Bq                   -0.96742  -3.69363   1. 
 Bq                   -0.96742  -3.49363   1. 
 Bq                   -0.96742  -3.29363   1. 
 Bq                   -0.96742  -3.09363   1. 
 Bq                   -0.96742  -2.89363   1. 
 Bq                   -0.96742  -2.69363   1. 
 Bq                   -0.96742  -2.49363   1. 
 Bq                   -0.96742  -2.29363   1. 
 Bq                   -0.96742  -2.09363   1. 
 Bq                   -0.96742  -1.89363   1. 
 Bq                   -0.96742  -1.69363   1. 
 Bq                   -0.96742  -1.49363   1. 
 Bq                   -0.96742  -1.29363   1. 
 Bq                   -0.96742  -1.09363   1. 
 Bq                   -0.96742  -0.89363   1. 
 Bq                   -0.96742  -0.69363   1. 
 Bq                   -0.96742  -0.49363   1. 
 Bq                   -0.96742  -0.29363   1. 
 Bq                   -0.96742  -0.09363   1. 
 Bq                   -0.96742   0.10637   1. 
 Bq                   -0.96742   0.30637   1. 
 Bq                   -0.96742   0.50637   1. 
 Bq                   -0.96742   0.70637   1. 
 Bq                   -0.96742   0.90637   1. 
 Bq                   -0.96742   1.10637   1. 
 Bq                   -0.96742   1.30637   1. 
 Bq                   -0.96742   1.50637   1. 
 Bq                   -0.96742   1.70637   1. 
 Bq                   -0.96742   1.90637   1. 
 Bq                   -0.96742   2.10637   1. 
 Bq                   -0.96742   2.30637   1. 
 Bq                   -0.96742   2.50637   1. 
 Bq                   -0.96742   2.70637   1. 
 Bq                   -0.96742   2.90637   1. 
 Bq                   -0.96742   3.10637   1. 
 Bq                   -0.96742   3.30637   1. 
 Bq                   -0.96742   3.50637   1. 
 Bq                   -0.96742   3.70637   1. 
 Bq                   -0.76742  -3.89363   1. 
 Bq                   -0.76742  -3.69363   1. 
 Bq                   -0.76742  -3.49363   1. 
 Bq                   -0.76742  -3.29363   1. 
 Bq                   -0.76742  -3.09363   1. 
 Bq                   -0.76742  -2.89363   1. 
 Bq                   -0.76742  -2.69363   1. 
 Bq                   -0.76742  -2.49363   1. 
 Bq                   -0.76742  -2.29363   1. 
 Bq                   -0.76742  -2.09363   1. 
 Bq                   -0.76742  -1.89363   1. 
 Bq                   -0.76742  -1.69363   1. 
 Bq                   -0.76742  -1.49363   1. 
 Bq                   -0.76742  -1.29363   1. 
 Bq                   -0.76742  -1.09363   1. 
 Bq                   -0.76742  -0.89363   1. 
 Bq                   -0.76742  -0.69363   1. 
 Bq                   -0.76742  -0.49363   1. 
 Bq                   -0.76742  -0.29363   1. 
 Bq                   -0.76742  -0.09363   1. 
 Bq                   -0.76742   0.10637   1. 
 Bq                   -0.76742   0.30637   1. 
 Bq                   -0.76742   0.50637   1. 
 Bq                   -0.76742   0.70637   1. 
 Bq                   -0.76742   0.90637   1. 
 Bq                   -0.76742   1.10637   1. 
 Bq                   -0.76742   1.30637   1. 
 Bq                   -0.76742   1.50637   1. 
 Bq                   -0.76742   1.70637   1. 
 Bq                   -0.76742   1.90637   1. 
 Bq                   -0.76742   2.10637   1. 
 Bq                   -0.76742   2.30637   1. 
 Bq                   -0.76742   2.50637   1. 
 Bq                   -0.76742   2.70637   1. 
 Bq                   -0.76742   2.90637   1. 
 Bq                   -0.76742   3.10637   1. 
 Bq                   -0.76742   3.30637   1. 
 Bq                   -0.76742   3.50637   1. 
 Bq                   -0.76742   3.70637   1. 
 Bq                   -0.56742  -3.89363   1. 
 Bq                   -0.56742  -3.69363   1. 
 Bq                   -0.56742  -3.49363   1. 
 Bq                   -0.56742  -3.29363   1. 
 Bq                   -0.56742  -3.09363   1. 
 Bq                   -0.56742  -2.89363   1. 
 Bq                   -0.56742  -2.69363   1. 
 Bq                   -0.56742  -2.49363   1. 
 Bq                   -0.56742  -2.29363   1. 
 Bq                   -0.56742  -2.09363   1. 
 Bq                   -0.56742  -1.89363   1. 
 Bq                   -0.56742  -1.69363   1. 
 Bq                   -0.56742  -1.49363   1. 
 Bq                   -0.56742  -1.29363   1. 
 Bq                   -0.56742  -1.09363   1. 
 Bq                   -0.56742  -0.89363   1. 
 Bq                   -0.56742  -0.69363   1. 
 Bq                   -0.56742  -0.49363   1. 
 Bq                   -0.56742  -0.29363   1. 
 Bq                   -0.56742  -0.09363   1. 
 Bq                   -0.56742   0.10637   1. 
 Bq                   -0.56742   0.30637   1. 
 Bq                   -0.56742   0.50637   1. 
 Bq                   -0.56742   0.70637   1. 
 Bq                   -0.56742   0.90637   1. 
 Bq                   -0.56742   1.10637   1. 
 Bq                   -0.56742   1.30637   1. 
 Bq                   -0.56742   1.50637   1. 
 Bq                   -0.56742   1.70637   1. 
 Bq                   -0.56742   1.90637   1. 
 Bq                   -0.56742   2.10637   1. 
 Bq                   -0.56742   2.30637   1. 
 Bq                   -0.56742   2.50637   1. 
 Bq                   -0.56742   2.70637   1. 
 Bq                   -0.56742   2.90637   1. 
 Bq                   -0.56742   3.10637   1. 
 Bq                   -0.56742   3.30637   1. 
 Bq                   -0.56742   3.50637   1. 
 Bq                   -0.56742   3.70637   1. 
 Bq                   -0.36742  -3.89363   1. 
 Bq                   -0.36742  -3.69363   1. 
 Bq                   -0.36742  -3.49363   1. 
 Bq                   -0.36742  -3.29363   1. 
 Bq                   -0.36742  -3.09363   1. 
 Bq                   -0.36742  -2.89363   1. 
 Bq                   -0.36742  -2.69363   1. 
 Bq                   -0.36742  -2.49363   1. 
 Bq                   -0.36742  -2.29363   1. 
 Bq                   -0.36742  -2.09363   1. 
 Bq                   -0.36742  -1.89363   1. 
 Bq                   -0.36742  -1.69363   1. 
 Bq                   -0.36742  -1.49363   1. 
 Bq                   -0.36742  -1.29363   1. 
 Bq                   -0.36742  -1.09363   1. 
 Bq                   -0.36742  -0.89363   1. 
 Bq                   -0.36742  -0.69363   1. 
 Bq                   -0.36742  -0.49363   1. 
 Bq                   -0.36742  -0.29363   1. 
 Bq                   -0.36742  -0.09363   1. 
 Bq                   -0.36742   0.10637   1. 
 Bq                   -0.36742   0.30637   1. 
 Bq                   -0.36742   0.50637   1. 
 Bq                   -0.36742   0.70637   1. 
 Bq                   -0.36742   0.90637   1. 
 Bq                   -0.36742   1.10637   1. 
 Bq                   -0.36742   1.30637   1. 
 Bq                   -0.36742   1.50637   1. 
 Bq                   -0.36742   1.70637   1. 
 Bq                   -0.36742   1.90637   1. 
 Bq                   -0.36742   2.10637   1. 
 Bq                   -0.36742   2.30637   1. 
 Bq                   -0.36742   2.50637   1. 
 Bq                   -0.36742   2.70637   1. 
 Bq                   -0.36742   2.90637   1. 
 Bq                   -0.36742   3.10637   1. 
 Bq                   -0.36742   3.30637   1. 
 Bq                   -0.36742   3.50637   1. 
 Bq                   -0.36742   3.70637   1. 
 Bq                   -0.16742  -3.89363   1. 
 Bq                   -0.16742  -3.69363   1. 
 Bq                   -0.16742  -3.49363   1. 
 Bq                   -0.16742  -3.29363   1. 
 Bq                   -0.16742  -3.09363   1. 
 Bq                   -0.16742  -2.89363   1. 
 Bq                   -0.16742  -2.69363   1. 
 Bq                   -0.16742  -2.49363   1. 
 Bq                   -0.16742  -2.29363   1. 
 Bq                   -0.16742  -2.09363   1. 
 Bq                   -0.16742  -1.89363   1. 
 Bq                   -0.16742  -1.69363   1. 
 Bq                   -0.16742  -1.49363   1. 
 Bq                   -0.16742  -1.29363   1. 
 Bq                   -0.16742  -1.09363   1. 
 Bq                   -0.16742  -0.89363   1. 
 Bq                   -0.16742  -0.69363   1. 
 Bq                   -0.16742  -0.49363   1. 
 Bq                   -0.16742  -0.29363   1. 
 Bq                   -0.16742  -0.09363   1. 
 Bq                   -0.16742   0.10637   1. 
 Bq                   -0.16742   0.30637   1. 
 Bq                   -0.16742   0.50637   1. 
 Bq                   -0.16742   0.70637   1. 
 Bq                   -0.16742   0.90637   1. 
 Bq                   -0.16742   1.10637   1. 
 Bq                   -0.16742   1.30637   1. 
 Bq                   -0.16742   1.50637   1. 
 Bq                   -0.16742   1.70637   1. 
 Bq                   -0.16742   1.90637   1. 
 Bq                   -0.16742   2.10637   1. 
 Bq                   -0.16742   2.30637   1. 
 Bq                   -0.16742   2.50637   1. 
 Bq                   -0.16742   2.70637   1. 
 Bq                   -0.16742   2.90637   1. 
 Bq                   -0.16742   3.10637   1. 
 Bq                   -0.16742   3.30637   1. 
 Bq                   -0.16742   3.50637   1. 
 Bq                   -0.16742   3.70637   1. 
 Bq                    0.03258  -3.89363   1. 
 Bq                    0.03258  -3.69363   1. 
 Bq                    0.03258  -3.49363   1. 
 Bq                    0.03258  -3.29363   1. 
 Bq                    0.03258  -3.09363   1. 
 Bq                    0.03258  -2.89363   1. 
 Bq                    0.03258  -2.69363   1. 
 Bq                    0.03258  -2.49363   1. 
 Bq                    0.03258  -2.29363   1. 
 Bq                    0.03258  -2.09363   1. 
 Bq                    0.03258  -1.89363   1. 
 Bq                    0.03258  -1.69363   1. 
 Bq                    0.03258  -1.49363   1. 
 Bq                    0.03258  -1.29363   1. 
 Bq                    0.03258  -1.09363   1. 
 Bq                    0.03258  -0.89363   1. 
 Bq                    0.03258  -0.69363   1. 
 Bq                    0.03258  -0.49363   1. 
 Bq                    0.03258  -0.29363   1. 
 Bq                    0.03258  -0.09363   1. 
 Bq                    0.03258   0.10637   1. 
 Bq                    0.03258   0.30637   1. 
 Bq                    0.03258   0.50637   1. 
 Bq                    0.03258   0.70637   1. 
 Bq                    0.03258   0.90637   1. 
 Bq                    0.03258   1.10637   1. 
 Bq                    0.03258   1.30637   1. 
 Bq                    0.03258   1.50637   1. 
 Bq                    0.03258   1.70637   1. 
 Bq                    0.03258   1.90637   1. 
 Bq                    0.03258   2.10637   1. 
 Bq                    0.03258   2.30637   1. 
 Bq                    0.03258   2.50637   1. 
 Bq                    0.03258   2.70637   1. 
 Bq                    0.03258   2.90637   1. 
 Bq                    0.03258   3.10637   1. 
 Bq                    0.03258   3.30637   1. 
 Bq                    0.03258   3.50637   1. 
 Bq                    0.03258   3.70637   1. 
 Bq                    0.23258  -3.89363   1. 
 Bq                    0.23258  -3.69363   1. 
 Bq                    0.23258  -3.49363   1. 
 Bq                    0.23258  -3.29363   1. 
 Bq                    0.23258  -3.09363   1. 
 Bq                    0.23258  -2.89363   1. 
 Bq                    0.23258  -2.69363   1. 
 Bq                    0.23258  -2.49363   1. 
 Bq                    0.23258  -2.29363   1. 
 Bq                    0.23258  -2.09363   1. 
 Bq                    0.23258  -1.89363   1. 
 Bq                    0.23258  -1.69363   1. 
 Bq                    0.23258  -1.49363   1. 
 Bq                    0.23258  -1.29363   1. 
 Bq                    0.23258  -1.09363   1. 
 Bq                    0.23258  -0.89363   1. 
 Bq                    0.23258  -0.69363   1. 
 Bq                    0.23258  -0.49363   1. 
 Bq                    0.23258  -0.29363   1. 
 Bq                    0.23258  -0.09363   1. 
 Bq                    0.23258   0.10637   1. 
 Bq                    0.23258   0.30637   1. 
 Bq                    0.23258   0.50637   1. 
 Bq                    0.23258   0.70637   1. 
 Bq                    0.23258   0.90637   1. 
 Bq                    0.23258   1.10637   1. 
 Bq                    0.23258   1.30637   1. 
 Bq                    0.23258   1.50637   1. 
 Bq                    0.23258   1.70637   1. 
 Bq                    0.23258   1.90637   1. 
 Bq                    0.23258   2.10637   1. 
 Bq                    0.23258   2.30637   1. 
 Bq                    0.23258   2.50637   1. 
 Bq                    0.23258   2.70637   1. 
 Bq                    0.23258   2.90637   1. 
 Bq                    0.23258   3.10637   1. 
 Bq                    0.23258   3.30637   1. 
 Bq                    0.23258   3.50637   1. 
 Bq                    0.23258   3.70637   1. 
 Bq                    0.43258  -3.89363   1. 
 Bq                    0.43258  -3.69363   1. 
 Bq                    0.43258  -3.49363   1. 
 Bq                    0.43258  -3.29363   1. 
 Bq                    0.43258  -3.09363   1. 
 Bq                    0.43258  -2.89363   1. 
 Bq                    0.43258  -2.69363   1. 
 Bq                    0.43258  -2.49363   1. 
 Bq                    0.43258  -2.29363   1. 
 Bq                    0.43258  -2.09363   1. 
 Bq                    0.43258  -1.89363   1. 
 Bq                    0.43258  -1.69363   1. 
 Bq                    0.43258  -1.49363   1. 
 Bq                    0.43258  -1.29363   1. 
 Bq                    0.43258  -1.09363   1. 
 Bq                    0.43258  -0.89363   1. 
 Bq                    0.43258  -0.69363   1. 
 Bq                    0.43258  -0.49363   1. 
 Bq                    0.43258  -0.29363   1. 
 Bq                    0.43258  -0.09363   1. 
 Bq                    0.43258   0.10637   1. 
 Bq                    0.43258   0.30637   1. 
 Bq                    0.43258   0.50637   1. 
 Bq                    0.43258   0.70637   1. 
 Bq                    0.43258   0.90637   1. 
 Bq                    0.43258   1.10637   1. 
 Bq                    0.43258   1.30637   1. 
 Bq                    0.43258   1.50637   1. 
 Bq                    0.43258   1.70637   1. 
 Bq                    0.43258   1.90637   1. 
 Bq                    0.43258   2.10637   1. 
 Bq                    0.43258   2.30637   1. 
 Bq                    0.43258   2.50637   1. 
 Bq                    0.43258   2.70637   1. 
 Bq                    0.43258   2.90637   1. 
 Bq                    0.43258   3.10637   1. 
 Bq                    0.43258   3.30637   1. 
 Bq                    0.43258   3.50637   1. 
 Bq                    0.43258   3.70637   1. 
 Bq                    0.63258  -3.89363   1. 
 Bq                    0.63258  -3.69363   1. 
 Bq                    0.63258  -3.49363   1. 
 Bq                    0.63258  -3.29363   1. 
 Bq                    0.63258  -3.09363   1. 
 Bq                    0.63258  -2.89363   1. 
 Bq                    0.63258  -2.69363   1. 
 Bq                    0.63258  -2.49363   1. 
 Bq                    0.63258  -2.29363   1. 
 Bq                    0.63258  -2.09363   1. 
 Bq                    0.63258  -1.89363   1. 
 Bq                    0.63258  -1.69363   1. 
 Bq                    0.63258  -1.49363   1. 
 Bq                    0.63258  -1.29363   1. 
 Bq                    0.63258  -1.09363   1. 
 Bq                    0.63258  -0.89363   1. 
 Bq                    0.63258  -0.69363   1. 
 Bq                    0.63258  -0.49363   1. 
 Bq                    0.63258  -0.29363   1. 
 Bq                    0.63258  -0.09363   1. 
 Bq                    0.63258   0.10637   1. 
 Bq                    0.63258   0.30637   1. 
 Bq                    0.63258   0.50637   1. 
 Bq                    0.63258   0.70637   1. 
 Bq                    0.63258   0.90637   1. 
 Bq                    0.63258   1.10637   1. 
 Bq                    0.63258   1.30637   1. 
 Bq                    0.63258   1.50637   1. 
 Bq                    0.63258   1.70637   1. 
 Bq                    0.63258   1.90637   1. 
 Bq                    0.63258   2.10637   1. 
 Bq                    0.63258   2.30637   1. 
 Bq                    0.63258   2.50637   1. 
 Bq                    0.63258   2.70637   1. 
 Bq                    0.63258   2.90637   1. 
 Bq                    0.63258   3.10637   1. 
 Bq                    0.63258   3.30637   1. 
 Bq                    0.63258   3.50637   1. 
 Bq                    0.63258   3.70637   1. 
 Bq                    0.83258  -3.89363   1. 
 Bq                    0.83258  -3.69363   1. 
 Bq                    0.83258  -3.49363   1. 
 Bq                    0.83258  -3.29363   1. 
 Bq                    0.83258  -3.09363   1. 
 Bq                    0.83258  -2.89363   1. 
 Bq                    0.83258  -2.69363   1. 
 Bq                    0.83258  -2.49363   1. 
 Bq                    0.83258  -2.29363   1. 
 Bq                    0.83258  -2.09363   1. 
 Bq                    0.83258  -1.89363   1. 
 Bq                    0.83258  -1.69363   1. 
 Bq                    0.83258  -1.49363   1. 
 Bq                    0.83258  -1.29363   1. 
 Bq                    0.83258  -1.09363   1. 
 Bq                    0.83258  -0.89363   1. 
 Bq                    0.83258  -0.69363   1. 
 Bq                    0.83258  -0.49363   1. 
 Bq                    0.83258  -0.29363   1. 
 Bq                    0.83258  -0.09363   1. 
 Bq                    0.83258   0.10637   1. 
 Bq                    0.83258   0.30637   1. 
 Bq                    0.83258   0.50637   1. 
 Bq                    0.83258   0.70637   1. 
 Bq                    0.83258   0.90637   1. 
 Bq                    0.83258   1.10637   1. 
 Bq                    0.83258   1.30637   1. 
 Bq                    0.83258   1.50637   1. 
 Bq                    0.83258   1.70637   1. 
 Bq                    0.83258   1.90637   1. 
 Bq                    0.83258   2.10637   1. 
 Bq                    0.83258   2.30637   1. 
 Bq                    0.83258   2.50637   1. 
 Bq                    0.83258   2.70637   1. 
 Bq                    0.83258   2.90637   1. 
 Bq                    0.83258   3.10637   1. 
 Bq                    0.83258   3.30637   1. 
 Bq                    0.83258   3.50637   1. 
 Bq                    0.83258   3.70637   1. 
 Bq                    1.03258  -3.89363   1. 
 Bq                    1.03258  -3.69363   1. 
 Bq                    1.03258  -3.49363   1. 
 Bq                    1.03258  -3.29363   1. 
 Bq                    1.03258  -3.09363   1. 
 Bq                    1.03258  -2.89363   1. 
 Bq                    1.03258  -2.69363   1. 
 Bq                    1.03258  -2.49363   1. 
 Bq                    1.03258  -2.29363   1. 
 Bq                    1.03258  -2.09363   1. 
 Bq                    1.03258  -1.89363   1. 
 Bq                    1.03258  -1.69363   1. 
 Bq                    1.03258  -1.49363   1. 
 Bq                    1.03258  -1.29363   1. 
 Bq                    1.03258  -1.09363   1. 
 Bq                    1.03258  -0.89363   1. 
 Bq                    1.03258  -0.69363   1. 
 Bq                    1.03258  -0.49363   1. 
 Bq                    1.03258  -0.29363   1. 
 Bq                    1.03258  -0.09363   1. 
 Bq                    1.03258   0.10637   1. 
 Bq                    1.03258   0.30637   1. 
 Bq                    1.03258   0.50637   1. 
 Bq                    1.03258   0.70637   1. 
 Bq                    1.03258   0.90637   1. 
 Bq                    1.03258   1.10637   1. 
 Bq                    1.03258   1.30637   1. 
 Bq                    1.03258   1.50637   1. 
 Bq                    1.03258   1.70637   1. 
 Bq                    1.03258   1.90637   1. 
 Bq                    1.03258   2.10637   1. 
 Bq                    1.03258   2.30637   1. 
 Bq                    1.03258   2.50637   1. 
 Bq                    1.03258   2.70637   1. 
 Bq                    1.03258   2.90637   1. 
 Bq                    1.03258   3.10637   1. 
 Bq                    1.03258   3.30637   1. 
 Bq                    1.03258   3.50637   1. 
 Bq                    1.03258   3.70637   1. 
 Bq                    1.23258  -3.89363   1. 
 Bq                    1.23258  -3.69363   1. 
 Bq                    1.23258  -3.49363   1. 
 Bq                    1.23258  -3.29363   1. 
 Bq                    1.23258  -3.09363   1. 
 Bq                    1.23258  -2.89363   1. 
 Bq                    1.23258  -2.69363   1. 
 Bq                    1.23258  -2.49363   1. 
 Bq                    1.23258  -2.29363   1. 
 Bq                    1.23258  -2.09363   1. 
 Bq                    1.23258  -1.89363   1. 
 Bq                    1.23258  -1.69363   1. 
 Bq                    1.23258  -1.49363   1. 
 Bq                    1.23258  -1.29363   1. 
 Bq                    1.23258  -1.09363   1. 
 Bq                    1.23258  -0.89363   1. 
 Bq                    1.23258  -0.69363   1. 
 Bq                    1.23258  -0.49363   1. 
 Bq                    1.23258  -0.29363   1. 
 Bq                    1.23258  -0.09363   1. 
 Bq                    1.23258   0.10637   1. 
 Bq                    1.23258   0.30637   1. 
 Bq                    1.23258   0.50637   1. 
 Bq                    1.23258   0.70637   1. 
 Bq                    1.23258   0.90637   1. 
 Bq                    1.23258   1.10637   1. 
 Bq                    1.23258   1.30637   1. 
 Bq                    1.23258   1.50637   1. 
 Bq                    1.23258   1.70637   1. 
 Bq                    1.23258   1.90637   1. 
 Bq                    1.23258   2.10637   1. 
 Bq                    1.23258   2.30637   1. 
 Bq                    1.23258   2.50637   1. 
 Bq                    1.23258   2.70637   1. 
 Bq                    1.23258   2.90637   1. 
 Bq                    1.23258   3.10637   1. 
 Bq                    1.23258   3.30637   1. 
 Bq                    1.23258   3.50637   1. 
 Bq                    1.23258   3.70637   1. 
 Bq                    1.43258  -3.89363   1. 
 Bq                    1.43258  -3.69363   1. 
 Bq                    1.43258  -3.49363   1. 
 Bq                    1.43258  -3.29363   1. 
 Bq                    1.43258  -3.09363   1. 
 Bq                    1.43258  -2.89363   1. 
 Bq                    1.43258  -2.69363   1. 
 Bq                    1.43258  -2.49363   1. 
 Bq                    1.43258  -2.29363   1. 
 Bq                    1.43258  -2.09363   1. 
 Bq                    1.43258  -1.89363   1. 
 Bq                    1.43258  -1.69363   1. 
 Bq                    1.43258  -1.49363   1. 
 Bq                    1.43258  -1.29363   1. 
 Bq                    1.43258  -1.09363   1. 
 Bq                    1.43258  -0.89363   1. 
 Bq                    1.43258  -0.69363   1. 
 Bq                    1.43258  -0.49363   1. 
 Bq                    1.43258  -0.29363   1. 
 Bq                    1.43258  -0.09363   1. 
 Bq                    1.43258   0.10637   1. 
 Bq                    1.43258   0.30637   1. 
 Bq                    1.43258   0.50637   1. 
 Bq                    1.43258   0.70637   1. 
 Bq                    1.43258   0.90637   1. 
 Bq                    1.43258   1.10637   1. 
 Bq                    1.43258   1.30637   1. 
 Bq                    1.43258   1.50637   1. 
 Bq                    1.43258   1.70637   1. 
 Bq                    1.43258   1.90637   1. 
 Bq                    1.43258   2.10637   1. 
 Bq                    1.43258   2.30637   1. 
 Bq                    1.43258   2.50637   1. 
 Bq                    1.43258   2.70637   1. 
 Bq                    1.43258   2.90637   1. 
 Bq                    1.43258   3.10637   1. 
 Bq                    1.43258   3.30637   1. 
 Bq                    1.43258   3.50637   1. 
 Bq                    1.43258   3.70637   1. 
 Bq                    1.63258  -3.89363   1. 
 Bq                    1.63258  -3.69363   1. 
 Bq                    1.63258  -3.49363   1. 
 Bq                    1.63258  -3.29363   1. 
 Bq                    1.63258  -3.09363   1. 
 Bq                    1.63258  -2.89363   1. 
 Bq                    1.63258  -2.69363   1. 
 Bq                    1.63258  -2.49363   1. 
 Bq                    1.63258  -2.29363   1. 
 Bq                    1.63258  -2.09363   1. 
 Bq                    1.63258  -1.89363   1. 
 Bq                    1.63258  -1.69363   1. 
 Bq                    1.63258  -1.49363   1. 
 Bq                    1.63258  -1.29363   1. 
 Bq                    1.63258  -1.09363   1. 
 Bq                    1.63258  -0.89363   1. 
 Bq                    1.63258  -0.69363   1. 
 Bq                    1.63258  -0.49363   1. 
 Bq                    1.63258  -0.29363   1. 
 Bq                    1.63258  -0.09363   1. 
 Bq                    1.63258   0.10637   1. 
 Bq                    1.63258   0.30637   1. 
 Bq                    1.63258   0.50637   1. 
 Bq                    1.63258   0.70637   1. 
 Bq                    1.63258   0.90637   1. 
 Bq                    1.63258   1.10637   1. 
 Bq                    1.63258   1.30637   1. 
 Bq                    1.63258   1.50637   1. 
 Bq                    1.63258   1.70637   1. 
 Bq                    1.63258   1.90637   1. 
 Bq                    1.63258   2.10637   1. 
 Bq                    1.63258   2.30637   1. 
 Bq                    1.63258   2.50637   1. 
 Bq                    1.63258   2.70637   1. 
 Bq                    1.63258   2.90637   1. 
 Bq                    1.63258   3.10637   1. 
 Bq                    1.63258   3.30637   1. 
 Bq                    1.63258   3.50637   1. 
 Bq                    1.63258   3.70637   1. 
 Bq                    1.83258  -3.89363   1. 
 Bq                    1.83258  -3.69363   1. 
 Bq                    1.83258  -3.49363   1. 
 Bq                    1.83258  -3.29363   1. 
 Bq                    1.83258  -3.09363   1. 
 Bq                    1.83258  -2.89363   1. 
 Bq                    1.83258  -2.69363   1. 
 Bq                    1.83258  -2.49363   1. 
 Bq                    1.83258  -2.29363   1. 
 Bq                    1.83258  -2.09363   1. 
 Bq                    1.83258  -1.89363   1. 
 Bq                    1.83258  -1.69363   1. 
 Bq                    1.83258  -1.49363   1. 
 Bq                    1.83258  -1.29363   1. 
 Bq                    1.83258  -1.09363   1. 
 Bq                    1.83258  -0.89363   1. 
 Bq                    1.83258  -0.69363   1. 
 Bq                    1.83258  -0.49363   1. 
 Bq                    1.83258  -0.29363   1. 
 Bq                    1.83258  -0.09363   1. 
 Bq                    1.83258   0.10637   1. 
 Bq                    1.83258   0.30637   1. 
 Bq                    1.83258   0.50637   1. 
 Bq                    1.83258   0.70637   1. 
 Bq                    1.83258   0.90637   1. 
 Bq                    1.83258   1.10637   1. 
 Bq                    1.83258   1.30637   1. 
 Bq                    1.83258   1.50637   1. 
 Bq                    1.83258   1.70637   1. 
 Bq                    1.83258   1.90637   1. 
 Bq                    1.83258   2.10637   1. 
 Bq                    1.83258   2.30637   1. 
 Bq                    1.83258   2.50637   1. 
 Bq                    1.83258   2.70637   1. 
 Bq                    1.83258   2.90637   1. 
 Bq                    1.83258   3.10637   1. 
 Bq                    1.83258   3.30637   1. 
 Bq                    1.83258   3.50637   1. 
 Bq                    1.83258   3.70637   1. 
 Bq                    2.03258  -3.89363   1. 
 Bq                    2.03258  -3.69363   1. 
 Bq                    2.03258  -3.49363   1. 
 Bq                    2.03258  -3.29363   1. 
 Bq                    2.03258  -3.09363   1. 
 Bq                    2.03258  -2.89363   1. 
 Bq                    2.03258  -2.69363   1. 
 Bq                    2.03258  -2.49363   1. 
 Bq                    2.03258  -2.29363   1. 
 Bq                    2.03258  -2.09363   1. 
 Bq                    2.03258  -1.89363   1. 
 Bq                    2.03258  -1.69363   1. 
 Bq                    2.03258  -1.49363   1. 
 Bq                    2.03258  -1.29363   1. 
 Bq                    2.03258  -1.09363   1. 
 Bq                    2.03258  -0.89363   1. 
 Bq                    2.03258  -0.69363   1. 
 Bq                    2.03258  -0.49363   1. 
 Bq                    2.03258  -0.29363   1. 
 Bq                    2.03258  -0.09363   1. 
 Bq                    2.03258   0.10637   1. 
 Bq                    2.03258   0.30637   1. 
 Bq                    2.03258   0.50637   1. 
 Bq                    2.03258   0.70637   1. 
 Bq                    2.03258   0.90637   1. 
 Bq                    2.03258   1.10637   1. 
 Bq                    2.03258   1.30637   1. 
 Bq                    2.03258   1.50637   1. 
 Bq                    2.03258   1.70637   1. 
 Bq                    2.03258   1.90637   1. 
 Bq                    2.03258   2.10637   1. 
 Bq                    2.03258   2.30637   1. 
 Bq                    2.03258   2.50637   1. 
 Bq                    2.03258   2.70637   1. 
 Bq                    2.03258   2.90637   1. 
 Bq                    2.03258   3.10637   1. 
 Bq                    2.03258   3.30637   1. 
 Bq                    2.03258   3.50637   1. 
 Bq                    2.03258   3.70637   1. 
 Bq                    2.23258  -3.89363   1. 
 Bq                    2.23258  -3.69363   1. 
 Bq                    2.23258  -3.49363   1. 
 Bq                    2.23258  -3.29363   1. 
 Bq                    2.23258  -3.09363   1. 
 Bq                    2.23258  -2.89363   1. 
 Bq                    2.23258  -2.69363   1. 
 Bq                    2.23258  -2.49363   1. 
 Bq                    2.23258  -2.29363   1. 
 Bq                    2.23258  -2.09363   1. 
 Bq                    2.23258  -1.89363   1. 
 Bq                    2.23258  -1.69363   1. 
 Bq                    2.23258  -1.49363   1. 
 Bq                    2.23258  -1.29363   1. 
 Bq                    2.23258  -1.09363   1. 
 Bq                    2.23258  -0.89363   1. 
 Bq                    2.23258  -0.69363   1. 
 Bq                    2.23258  -0.49363   1. 
 Bq                    2.23258  -0.29363   1. 
 Bq                    2.23258  -0.09363   1. 
 Bq                    2.23258   0.10637   1. 
 Bq                    2.23258   0.30637   1. 
 Bq                    2.23258   0.50637   1. 
 Bq                    2.23258   0.70637   1. 
 Bq                    2.23258   0.90637   1. 
 Bq                    2.23258   1.10637   1. 
 Bq                    2.23258   1.30637   1. 
 Bq                    2.23258   1.50637   1. 
 Bq                    2.23258   1.70637   1. 
 Bq                    2.23258   1.90637   1. 
 Bq                    2.23258   2.10637   1. 
 Bq                    2.23258   2.30637   1. 
 Bq                    2.23258   2.50637   1. 
 Bq                    2.23258   2.70637   1. 
 Bq                    2.23258   2.90637   1. 
 Bq                    2.23258   3.10637   1. 
 Bq                    2.23258   3.30637   1. 
 Bq                    2.23258   3.50637   1. 
 Bq                    2.23258   3.70637   1. 
 Bq                    2.43258  -3.89363   1. 
 Bq                    2.43258  -3.69363   1. 
 Bq                    2.43258  -3.49363   1. 
 Bq                    2.43258  -3.29363   1. 
 Bq                    2.43258  -3.09363   1. 
 Bq                    2.43258  -2.89363   1. 
 Bq                    2.43258  -2.69363   1. 
 Bq                    2.43258  -2.49363   1. 
 Bq                    2.43258  -2.29363   1. 
 Bq                    2.43258  -2.09363   1. 
 Bq                    2.43258  -1.89363   1. 
 Bq                    2.43258  -1.69363   1. 
 Bq                    2.43258  -1.49363   1. 
 Bq                    2.43258  -1.29363   1. 
 Bq                    2.43258  -1.09363   1. 
 Bq                    2.43258  -0.89363   1. 
 Bq                    2.43258  -0.69363   1. 
 Bq                    2.43258  -0.49363   1. 
 Bq                    2.43258  -0.29363   1. 
 Bq                    2.43258  -0.09363   1. 
 Bq                    2.43258   0.10637   1. 
 Bq                    2.43258   0.30637   1. 
 Bq                    2.43258   0.50637   1. 
 Bq                    2.43258   0.70637   1. 
 Bq                    2.43258   0.90637   1. 
 Bq                    2.43258   1.10637   1. 
 Bq                    2.43258   1.30637   1. 
 Bq                    2.43258   1.50637   1. 
 Bq                    2.43258   1.70637   1. 
 Bq                    2.43258   1.90637   1. 
 Bq                    2.43258   2.10637   1. 
 Bq                    2.43258   2.30637   1. 
 Bq                    2.43258   2.50637   1. 
 Bq                    2.43258   2.70637   1. 
 Bq                    2.43258   2.90637   1. 
 Bq                    2.43258   3.10637   1. 
 Bq                    2.43258   3.30637   1. 
 Bq                    2.43258   3.50637   1. 
 Bq                    2.43258   3.70637   1. 
 Bq                    2.63258  -3.89363   1. 
 Bq                    2.63258  -3.69363   1. 
 Bq                    2.63258  -3.49363   1. 
 Bq                    2.63258  -3.29363   1. 
 Bq                    2.63258  -3.09363   1. 
 Bq                    2.63258  -2.89363   1. 
 Bq                    2.63258  -2.69363   1. 
 Bq                    2.63258  -2.49363   1. 
 Bq                    2.63258  -2.29363   1. 
 Bq                    2.63258  -2.09363   1. 
 Bq                    2.63258  -1.89363   1. 
 Bq                    2.63258  -1.69363   1. 
 Bq                    2.63258  -1.49363   1. 
 Bq                    2.63258  -1.29363   1. 
 Bq                    2.63258  -1.09363   1. 
 Bq                    2.63258  -0.89363   1. 
 Bq                    2.63258  -0.69363   1. 
 Bq                    2.63258  -0.49363   1. 
 Bq                    2.63258  -0.29363   1. 
 Bq                    2.63258  -0.09363   1. 
 Bq                    2.63258   0.10637   1. 
 Bq                    2.63258   0.30637   1. 
 Bq                    2.63258   0.50637   1. 
 Bq                    2.63258   0.70637   1. 
 Bq                    2.63258   0.90637   1. 
 Bq                    2.63258   1.10637   1. 
 Bq                    2.63258   1.30637   1. 
 Bq                    2.63258   1.50637   1. 
 Bq                    2.63258   1.70637   1. 
 Bq                    2.63258   1.90637   1. 
 Bq                    2.63258   2.10637   1. 
 Bq                    2.63258   2.30637   1. 
 Bq                    2.63258   2.50637   1. 
 Bq                    2.63258   2.70637   1. 
 Bq                    2.63258   2.90637   1. 
 Bq                    2.63258   3.10637   1. 
 Bq                    2.63258   3.30637   1. 
 Bq                    2.63258   3.50637   1. 
 Bq                    2.63258   3.70637   1. 
 Bq                    2.83258  -3.89363   1. 
 Bq                    2.83258  -3.69363   1. 
 Bq                    2.83258  -3.49363   1. 
 Bq                    2.83258  -3.29363   1. 
 Bq                    2.83258  -3.09363   1. 
 Bq                    2.83258  -2.89363   1. 
 Bq                    2.83258  -2.69363   1. 
 Bq                    2.83258  -2.49363   1. 
 Bq                    2.83258  -2.29363   1. 
 Bq                    2.83258  -2.09363   1. 
 Bq                    2.83258  -1.89363   1. 
 Bq                    2.83258  -1.69363   1. 
 Bq                    2.83258  -1.49363   1. 
[...]
 .09363,1.\Bq,0,1.23258,-1.89363,1.\Bq,0,1.23258,-1.69363,1.\Bq,0,1.232
 58,-1.49363,1.\Bq,0,1.23258,-1.29363,1.\Bq,0,1.23258,-1.09363,1.\Bq,0,
 1.23258,-0.89363,1.\Bq,0,1.23258,-0.69363,1.\Bq,0,1.23258,-0.49363,1.\
 Bq,0,1.23258,-0.29363,1.\Bq,0,1.23258,-0.09363,1.\Bq,0,1.23258,0.10637
 ,1.\Bq,0,1.23258,0.30637,1.\Bq,0,1.23258,0.50637,1.\Bq,0,1.23258,0.706
 37,1.\Bq,0,1.23258,0.90637,1.\Bq,0,1.23258,1.10637,1.\Bq,0,1.23258,1.3
 0637,1.\Bq,0,1.23258,1.50637,1.\Bq,0,1.23258,1.70637,1.\Bq,0,1.23258,1
 .90637,1.\Bq,0,1.23258,2.10637,1.\Bq,0,1.23258,2.30637,1.\Bq,0,1.23258
 ,2.50637,1.\Bq,0,1.23258,2.70637,1.\Bq,0,1.23258,2.90637,1.\Bq,0,1.232
 58,3.10637,1.\Bq,0,1.23258,3.30637,1.\Bq,0,1.23258,3.50637,1.\Bq,0,1.2
 3258,3.70637,1.\Bq,0,1.43258,-3.89363,1.\Bq,0,1.43258,-3.69363,1.\Bq,0
 ,1.43258,-3.49363,1.\Bq,0,1.43258,-3.29363,1.\Bq,0,1.43258,-3.09363,1.
 \Bq,0,1.43258,-2.89363,1.\Bq,0,1.43258,-2.69363,1.\Bq,0,1.43258,-2.493
 63,1.\Bq,0,1.43258,-2.29363,1.\Bq,0,1.43258,-2.09363,1.\Bq,0,1.43258,-
 1.89363,1.\Bq,0,1.43258,-1.69363,1.\Bq,0,1.43258,-1.49363,1.\Bq,0,1.43
 258,-1.29363,1.\Bq,0,1.43258,-1.09363,1.\Bq,0,1.43258,-0.89363,1.\Bq,0
 ,1.43258,-0.69363,1.\Bq,0,1.43258,-0.49363,1.\Bq,0,1.43258,-0.29363,1.
 \Bq,0,1.43258,-0.09363,1.\Bq,0,1.43258,0.10637,1.\Bq,0,1.43258,0.30637
 ,1.\Bq,0,1.43258,0.50637,1.\Bq,0,1.43258,0.70637,1.\Bq,0,1.43258,0.906
 37,1.\Bq,0,1.43258,1.10637,1.\Bq,0,1.43258,1.30637,1.\Bq,0,1.43258,1.5
 0637,1.\Bq,0,1.43258,1.70637,1.\Bq,0,1.43258,1.90637,1.\Bq,0,1.43258,2
 .10637,1.\Bq,0,1.43258,2.30637,1.\Bq,0,1.43258,2.50637,1.\Bq,0,1.43258
 ,2.70637,1.\Bq,0,1.43258,2.90637,1.\Bq,0,1.43258,3.10637,1.\Bq,0,1.432
 58,3.30637,1.\Bq,0,1.43258,3.50637,1.\Bq,0,1.43258,3.70637,1.\Bq,0,1.6
 3258,-3.89363,1.\Bq,0,1.63258,-3.69363,1.\Bq,0,1.63258,-3.49363,1.\Bq,
 0,1.63258,-3.29363,1.\Bq,0,1.63258,-3.09363,1.\Bq,0,1.63258,-2.89363,1
 .\Bq,0,1.63258,-2.69363,1.\Bq,0,1.63258,-2.49363,1.\Bq,0,1.63258,-2.29
 363,1.\Bq,0,1.63258,-2.09363,1.\Bq,0,1.63258,-1.89363,1.\Bq,0,1.63258,
 -1.69363,1.\Bq,0,1.63258,-1.49363,1.\Bq,0,1.63258,-1.29363,1.\Bq,0,1.6
 3258,-1.09363,1.\Bq,0,1.63258,-0.89363,1.\Bq,0,1.63258,-0.69363,1.\Bq,
 0,1.63258,-0.49363,1.\Bq,0,1.63258,-0.29363,1.\Bq,0,1.63258,-0.09363,1
 .\Bq,0,1.63258,0.10637,1.\Bq,0,1.63258,0.30637,1.\Bq,0,1.63258,0.50637
 ,1.\Bq,0,1.63258,0.70637,1.\Bq,0,1.63258,0.90637,1.\Bq,0,1.63258,1.106
 37,1.\Bq,0,1.63258,1.30637,1.\Bq,0,1.63258,1.50637,1.\Bq,0,1.63258,1.7
 0637,1.\Bq,0,1.63258,1.90637,1.\Bq,0,1.63258,2.10637,1.\Bq,0,1.63258,2
 .30637,1.\Bq,0,1.63258,2.50637,1.\Bq,0,1.63258,2.70637,1.\Bq,0,1.63258
 ,2.90637,1.\Bq,0,1.63258,3.10637,1.\Bq,0,1.63258,3.30637,1.\Bq,0,1.632
 58,3.50637,1.\Bq,0,1.63258,3.70637,1.\Bq,0,1.83258,-3.89363,1.\Bq,0,1.
 83258,-3.69363,1.\Bq,0,1.83258,-3.49363,1.\Bq,0,1.83258,-3.29363,1.\Bq
 ,0,1.83258,-3.09363,1.\Bq,0,1.83258,-2.89363,1.\Bq,0,1.83258,-2.69363,
 1.\Bq,0,1.83258,-2.49363,1.\Bq,0,1.83258,-2.29363,1.\Bq,0,1.83258,-2.0
 9363,1.\Bq,0,1.83258,-1.89363,1.\Bq,0,1.83258,-1.69363,1.\Bq,0,1.83258
 ,-1.49363,1.\Bq,0,1.83258,-1.29363,1.\Bq,0,1.83258,-1.09363,1.\Bq,0,1.
 83258,-0.89363,1.\Bq,0,1.83258,-0.69363,1.\Bq,0,1.83258,-0.49363,1.\Bq
 ,0,1.83258,-0.29363,1.\Bq,0,1.83258,-0.09363,1.\Bq,0,1.83258,0.10637,1
 .\Bq,0,1.83258,0.30637,1.\Bq,0,1.83258,0.50637,1.\Bq,0,1.83258,0.70637
 ,1.\Bq,0,1.83258,0.90637,1.\Bq,0,1.83258,1.10637,1.\Bq,0,1.83258,1.306
 37,1.\Bq,0,1.83258,1.50637,1.\Bq,0,1.83258,1.70637,1.\Bq,0,1.83258,1.9
 0637,1.\Bq,0,1.83258,2.10637,1.\Bq,0,1.83258,2.30637,1.\Bq,0,1.83258,2
 .50637,1.\Bq,0,1.83258,2.70637,1.\Bq,0,1.83258,2.90637,1.\Bq,0,1.83258
 ,3.10637,1.\Bq,0,1.83258,3.30637,1.\Bq,0,1.83258,3.50637,1.\Bq,0,1.832
 58,3.70637,1.\Bq,0,2.03258,-3.89363,1.\Bq,0,2.03258,-3.69363,1.\Bq,0,2
 .03258,-3.49363,1.\Bq,0,2.03258,-3.29363,1.\Bq,0,2.03258,-3.09363,1.\B
 q,0,2.03258,-2.89363,1.\Bq,0,2.03258,-2.69363,1.\Bq,0,2.03258,-2.49363
 ,1.\Bq,0,2.03258,-2.29363,1.\Bq,0,2.03258,-2.09363,1.\Bq,0,2.03258,-1.
 89363,1.\Bq,0,2.03258,-1.69363,1.\Bq,0,2.03258,-1.49363,1.\Bq,0,2.0325
 8,-1.29363,1.\Bq,0,2.03258,-1.09363,1.\Bq,0,2.03258,-0.89363,1.\Bq,0,2
 .03258,-0.69363,1.\Bq,0,2.03258,-0.49363,1.\Bq,0,2.03258,-0.29363,1.\B
 q,0,2.03258,-0.09363,1.\Bq,0,2.03258,0.10637,1.\Bq,0,2.03258,0.30637,1
 .\Bq,0,2.03258,0.50637,1.\Bq,0,2.03258,0.70637,1.\Bq,0,2.03258,0.90637
 ,1.\Bq,0,2.03258,1.10637,1.\Bq,0,2.03258,1.30637,1.\Bq,0,2.03258,1.506
 37,1.\Bq,0,2.03258,1.70637,1.\Bq,0,2.03258,1.90637,1.\Bq,0,2.03258,2.1
 0637,1.\Bq,0,2.03258,2.30637,1.\Bq,0,2.03258,2.50637,1.\Bq,0,2.03258,2
 .70637,1.\Bq,0,2.03258,2.90637,1.\Bq,0,2.03258,3.10637,1.\Bq,0,2.03258
 ,3.30637,1.\Bq,0,2.03258,3.50637,1.\Bq,0,2.03258,3.70637,1.\Bq,0,2.232
 58,-3.89363,1.\Bq,0,2.23258,-3.69363,1.\Bq,0,2.23258,-3.49363,1.\Bq,0,
 2.23258,-3.29363,1.\Bq,0,2.23258,-3.09363,1.\Bq,0,2.23258,-2.89363,1.\
 Bq,0,2.23258,-2.69363,1.\Bq,0,2.23258,-2.49363,1.\Bq,0,2.23258,-2.2936
 3,1.\Bq,0,2.23258,-2.09363,1.\Bq,0,2.23258,-1.89363,1.\Bq,0,2.23258,-1
 .69363,1.\Bq,0,2.23258,-1.49363,1.\Bq,0,2.23258,-1.29363,1.\Bq,0,2.232
 58,-1.09363,1.\Bq,0,2.23258,-0.89363,1.\Bq,0,2.23258,-0.69363,1.\Bq,0,
 2.23258,-0.49363,1.\Bq,0,2.23258,-0.29363,1.\Bq,0,2.23258,-0.09363,1.\
 Bq,0,2.23258,0.10637,1.\Bq,0,2.23258,0.30637,1.\Bq,0,2.23258,0.50637,1
 .\Bq,0,2.23258,0.70637,1.\Bq,0,2.23258,0.90637,1.\Bq,0,2.23258,1.10637
 ,1.\Bq,0,2.23258,1.30637,1.\Bq,0,2.23258,1.50637,1.\Bq,0,2.23258,1.706
 37,1.\Bq,0,2.23258,1.90637,1.\Bq,0,2.23258,2.10637,1.\Bq,0,2.23258,2.3
 0637,1.\Bq,0,2.23258,2.50637,1.\Bq,0,2.23258,2.70637,1.\Bq,0,2.23258,2
 .90637,1.\Bq,0,2.23258,3.10637,1.\Bq,0,2.23258,3.30637,1.\Bq,0,2.23258
 ,3.50637,1.\Bq,0,2.23258,3.70637,1.\Bq,0,2.43258,-3.89363,1.\Bq,0,2.43
 258,-3.69363,1.\Bq,0,2.43258,-3.49363,1.\Bq,0,2.43258,-3.29363,1.\Bq,0
 ,2.43258,-3.09363,1.\Bq,0,2.43258,-2.89363,1.\Bq,0,2.43258,-2.69363,1.
 \Bq,0,2.43258,-2.49363,1.\Bq,0,2.43258,-2.29363,1.\Bq,0,2.43258,-2.093
 63,1.\Bq,0,2.43258,-1.89363,1.\Bq,0,2.43258,-1.69363,1.\Bq,0,2.43258,-
 1.49363,1.\Bq,0,2.43258,-1.29363,1.\Bq,0,2.43258,-1.09363,1.\Bq,0,2.43
 258,-0.89363,1.\Bq,0,2.43258,-0.69363,1.\Bq,0,2.43258,-0.49363,1.\Bq,0
 ,2.43258,-0.29363,1.\Bq,0,2.43258,-0.09363,1.\Bq,0,2.43258,0.10637,1.\
 Bq,0,2.43258,0.30637,1.\Bq,0,2.43258,0.50637,1.\Bq,0,2.43258,0.70637,1
 .\Bq,0,2.43258,0.90637,1.\Bq,0,2.43258,1.10637,1.\Bq,0,2.43258,1.30637
 ,1.\Bq,0,2.43258,1.50637,1.\Bq,0,2.43258,1.70637,1.\Bq,0,2.43258,1.906
 37,1.\Bq,0,2.43258,2.10637,1.\Bq,0,2.43258,2.30637,1.\Bq,0,2.43258,2.5
 0637,1.\Bq,0,2.43258,2.70637,1.\Bq,0,2.43258,2.90637,1.\Bq,0,2.43258,3
 .10637,1.\Bq,0,2.43258,3.30637,1.\Bq,0,2.43258,3.50637,1.\Bq,0,2.43258
 ,3.70637,1.\Bq,0,2.63258,-3.89363,1.\Bq,0,2.63258,-3.69363,1.\Bq,0,2.6
 3258,-3.49363,1.\Bq,0,2.63258,-3.29363,1.\Bq,0,2.63258,-3.09363,1.\Bq,
 0,2.63258,-2.89363,1.\Bq,0,2.63258,-2.69363,1.\Bq,0,2.63258,-2.49363,1
 .\Bq,0,2.63258,-2.29363,1.\Bq,0,2.63258,-2.09363,1.\Bq,0,2.63258,-1.89
 363,1.\Bq,0,2.63258,-1.69363,1.\Bq,0,2.63258,-1.49363,1.\Bq,0,2.63258,
 -1.29363,1.\Bq,0,2.63258,-1.09363,1.\Bq,0,2.63258,-0.89363,1.\Bq,0,2.6
 3258,-0.69363,1.\Bq,0,2.63258,-0.49363,1.\Bq,0,2.63258,-0.29363,1.\Bq,
 0,2.63258,-0.09363,1.\Bq,0,2.63258,0.10637,1.\Bq,0,2.63258,0.30637,1.\
 Bq,0,2.63258,0.50637,1.\Bq,0,2.63258,0.70637,1.\Bq,0,2.63258,0.90637,1
 .\Bq,0,2.63258,1.10637,1.\Bq,0,2.63258,1.30637,1.\Bq,0,2.63258,1.50637
 ,1.\Bq,0,2.63258,1.70637,1.\Bq,0,2.63258,1.90637,1.\Bq,0,2.63258,2.106
 37,1.\Bq,0,2.63258,2.30637,1.\Bq,0,2.63258,2.50637,1.\Bq,0,2.63258,2.7
 0637,1.\Bq,0,2.63258,2.90637,1.\Bq,0,2.63258,3.10637,1.\Bq,0,2.63258,3
 .30637,1.\Bq,0,2.63258,3.50637,1.\Bq,0,2.63258,3.70637,1.\Bq,0,2.83258
 ,-3.89363,1.\Bq,0,2.83258,-3.69363,1.\Bq,0,2.83258,-3.49363,1.\Bq,0,2.
 83258,-3.29363,1.\Bq,0,2.83258,-3.09363,1.\Bq,0,2.83258,-2.89363,1.\Bq
 ,0,2.83258,-2.69363,1.\Bq,0,2.83258,-2.49363,1.\Bq,0,2.83258,-2.29363,
 1.\Bq,0,2.83258,-2.09363,1.\Bq,0,2.83258,-1.89363,1.\Bq,0,2.83258,-1.6
 9363,1.\Bq,0,2.83258,-1.49363,1.\Bq,0,2.83258,-1.29363,1.\Bq,0,2.83258
 ,-1.09363,1.\Bq,0,2.83258,-0.89363,1.\Bq,0,2.83258,-0.69363,1.\Bq,0,2.
 83258,-0.49363,1.\Bq,0,2.83258,-0.29363,1.\Bq,0,2.83258,-0.09363,1.\Bq
 ,0,2.83258,0.10637,1.\Bq,0,2.83258,0.30637,1.\Bq,0,2.83258,0.50637,1.\
 Bq,0,2.83258,0.70637,1.\Bq,0,2.83258,0.90637,1.\Bq,0,2.83258,1.10637,1
 .\Bq,0,2.83258,1.30637,1.\Bq,0,2.83258,1.50637,1.\Bq,0,2.83258,1.70637
 ,1.\Bq,0,2.83258,1.90637,1.\Bq,0,2.83258,2.10637,1.\Bq,0,2.83258,2.306
 37,1.\Bq,0,2.83258,2.50637,1.\Bq,0,2.83258,2.70637,1.\Bq,0,2.83258,2.9
 0637,1.\Bq,0,2.83258,3.10637,1.\Bq,0,2.83258,3.30637,1.\Bq,0,2.83258,3
 .50637,1.\Bq,0,2.83258,3.70637,1.\Bq,0,3.03258,-3.89363,1.\Bq,0,3.0325
 8,-3.69363,1.\Bq,0,3.03258,-3.49363,1.\Bq,0,3.03258,-3.29363,1.\Bq,0,3
 .03258,-3.09363,1.\Bq,0,3.03258,-2.89363,1.\Bq,0,3.03258,-2.69363,1.\B
 q,0,3.03258,-2.49363,1.\Bq,0,3.03258,-2.29363,1.\Bq,0,3.03258,-2.09363
 ,1.\Bq,0,3.03258,-1.89363,1.\Bq,0,3.03258,-1.69363,1.\Bq,0,3.03258,-1.
 49363,1.\Bq,0,3.03258,-1.29363,1.\Bq,0,3.03258,-1.09363,1.\Bq,0,3.0325
 8,-0.89363,1.\Bq,0,3.03258,-0.69363,1.\Bq,0,3.03258,-0.49363,1.\Bq,0,3
 .03258,-0.29363,1.\Bq,0,3.03258,-0.09363,1.\Bq,0,3.03258,0.10637,1.\Bq
 ,0,3.03258,0.30637,1.\Bq,0,3.03258,0.50637,1.\Bq,0,3.03258,0.70637,1.\
 Bq,0,3.03258,0.90637,1.\Bq,0,3.03258,1.10637,1.\Bq,0,3.03258,1.30637,1
 .\Bq,0,3.03258,1.50637,1.\Bq,0,3.03258,1.70637,1.\Bq,0,3.03258,1.90637
 ,1.\Bq,0,3.03258,2.10637,1.\Bq,0,3.03258,2.30637,1.\Bq,0,3.03258,2.506
 37,1.\Bq,0,3.03258,2.70637,1.\Bq,0,3.03258,2.90637,1.\Bq,0,3.03258,3.1
 0637,1.\Bq,0,3.03258,3.30637,1.\Bq,0,3.03258,3.50637,1.\Bq,0,3.03258,3
 .70637,1.\Bq,0,3.23258,-3.89363,1.\Bq,0,3.23258,-3.69363,1.\Bq,0,3.232
 58,-3.49363,1.\Bq,0,3.23258,-3.29363,1.\Bq,0,3.23258,-3.09363,1.\Bq,0,
 3.23258,-2.89363,1.\Bq,0,3.23258,-2.69363,1.\Bq,0,3.23258,-2.49363,1.\
 Bq,0,3.23258,-2.29363,1.\Bq,0,3.23258,-2.09363,1.\Bq,0,3.23258,-1.8936
 3,1.\Bq,0,3.23258,-1.69363,1.\Bq,0,3.23258,-1.49363,1.\Bq,0,3.23258,-1
 .29363,1.\Bq,0,3.23258,-1.09363,1.\Bq,0,3.23258,-0.89363,1.\Bq,0,3.232
 58,-0.69363,1.\Bq,0,3.23258,-0.49363,1.\Bq,0,3.23258,-0.29363,1.\Bq,0,
 3.23258,-0.09363,1.\Bq,0,3.23258,0.10637,1.\Bq,0,3.23258,0.30637,1.\Bq
 ,0,3.23258,0.50637,1.\Bq,0,3.23258,0.70637,1.\Bq,0,3.23258,0.90637,1.\
 Bq,0,3.23258,1.10637,1.\Bq,0,3.23258,1.30637,1.\Bq,0,3.23258,1.50637,1
 .\Bq,0,3.23258,1.70637,1.\Bq,0,3.23258,1.90637,1.\Bq,0,3.23258,2.10637
 ,1.\Bq,0,3.23258,2.30637,1.\Bq,0,3.23258,2.50637,1.\Bq,0,3.23258,2.706
 37,1.\Bq,0,3.23258,2.90637,1.\Bq,0,3.23258,3.10637,1.\Bq,0,3.23258,3.3
 0637,1.\Bq,0,3.23258,3.50637,1.\Bq,0,3.23258,3.70637,1.\Bq,0,3.43258,-
 3.89363,1.\Bq,0,3.43258,-3.69363,1.\Bq,0,3.43258,-3.49363,1.\Bq,0,3.43
 258,-3.29363,1.\Bq,0,3.43258,-3.09363,1.\Bq,0,3.43258,-2.89363,1.\Bq,0
 ,3.43258,-2.69363,1.\Bq,0,3.43258,-2.49363,1.\Bq,0,3.43258,-2.29363,1.
 \Bq,0,3.43258,-2.09363,1.\Bq,0,3.43258,-1.89363,1.\Bq,0,3.43258,-1.693
 63,1.\Bq,0,3.43258,-1.49363,1.\Bq,0,3.43258,-1.29363,1.\Bq,0,3.43258,-
 1.09363,1.\Bq,0,3.43258,-0.89363,1.\Bq,0,3.43258,-0.69363,1.\Bq,0,3.43
 258,-0.49363,1.\Bq,0,3.43258,-0.29363,1.\Bq,0,3.43258,-0.09363,1.\Bq,0
 ,3.43258,0.10637,1.\Bq,0,3.43258,0.30637,1.\Bq,0,3.43258,0.50637,1.\Bq
 ,0,3.43258,0.70637,1.\Bq,0,3.43258,0.90637,1.\Bq,0,3.43258,1.10637,1.\
 Bq,0,3.43258,1.30637,1.\Bq,0,3.43258,1.50637,1.\Bq,0,3.43258,1.70637,1
 .\Bq,0,3.43258,1.90637,1.\Bq,0,3.43258,2.10637,1.\Bq,0,3.43258,2.30637
 ,1.\Bq,0,3.43258,2.50637,1.\Bq,0,3.43258,2.70637,1.\Bq,0,3.43258,2.906
 37,1.\Bq,0,3.43258,3.10637,1.\Bq,0,3.43258,3.30637,1.\Bq,0,3.43258,3.5
 0637,1.\Bq,0,3.43258,3.70637,1.\Bq,0,3.63258,-3.89363,1.\Bq,0,3.63258,
 -3.69363,1.\Bq,0,3.63258,-3.49363,1.\Bq,0,3.63258,-3.29363,1.\Bq,0,3.6
 3258,-3.09363,1.\Bq,0,3.63258,-2.89363,1.\Bq,0,3.63258,-2.69363,1.\Bq,
 0,3.63258,-2.49363,1.\Bq,0,3.63258,-2.29363,1.\Bq,0,3.63258,-2.09363,1
 .\Bq,0,3.63258,-1.89363,1.\Bq,0,3.63258,-1.69363,1.\Bq,0,3.63258,-1.49
 363,1.\Bq,0,3.63258,-1.29363,1.\Bq,0,3.63258,-1.09363,1.\Bq,0,3.63258,
 -0.89363,1.\Bq,0,3.63258,-0.69363,1.\Bq,0,3.63258,-0.49363,1.\Bq,0,3.6
 3258,-0.29363,1.\Bq,0,3.63258,-0.09363,1.\Bq,0,3.63258,0.10637,1.\Bq,0
 ,3.63258,0.30637,1.\Bq,0,3.63258,0.50637,1.\Bq,0,3.63258,0.70637,1.\Bq
 ,0,3.63258,0.90637,1.\Bq,0,3.63258,1.10637,1.\Bq,0,3.63258,1.30637,1.\
 Bq,0,3.63258,1.50637,1.\Bq,0,3.63258,1.70637,1.\Bq,0,3.63258,1.90637,1
 .\Bq,0,3.63258,2.10637,1.\Bq,0,3.63258,2.30637,1.\Bq,0,3.63258,2.50637
 ,1.\Bq,0,3.63258,2.70637,1.\Bq,0,3.63258,2.90637,1.\Bq,0,3.63258,3.106
 37,1.\Bq,0,3.63258,3.30637,1.\Bq,0,3.63258,3.50637,1.\Bq,0,3.63258,3.7
 0637,1.\Bq,0,3.83258,-3.89363,1.\Bq,0,3.83258,-3.69363,1.\Bq,0,3.83258
 ,-3.49363,1.\Bq,0,3.83258,-3.29363,1.\Bq,0,3.83258,-3.09363,1.\Bq,0,3.
 83258,-2.89363,1.\Bq,0,3.83258,-2.69363,1.\Bq,0,3.83258,-2.49363,1.\Bq
 ,0,3.83258,-2.29363,1.\Bq,0,3.83258,-2.09363,1.\Bq,0,3.83258,-1.89363,
 1.\Bq,0,3.83258,-1.69363,1.\Bq,0,3.83258,-1.49363,1.\Bq,0,3.83258,-1.2
 9363,1.\Bq,0,3.83258,-1.09363,1.\Bq,0,3.83258,-0.89363,1.\Bq,0,3.83258
 ,-0.69363,1.\Bq,0,3.83258,-0.49363,1.\Bq,0,3.83258,-0.29363,1.\Bq,0,3.
 83258,-0.09363,1.\Bq,0,3.83258,0.10637,1.\Bq,0,3.83258,0.30637,1.\Bq,0
 ,3.83258,0.50637,1.\Bq,0,3.83258,0.70637,1.\Bq,0,3.83258,0.90637,1.\Bq
 ,0,3.83258,1.10637,1.\Bq,0,3.83258,1.30637,1.\Bq,0,3.83258,1.50637,1.\
 Bq,0,3.83258,1.70637,1.\Bq,0,3.83258,1.90637,1.\Bq,0,3.83258,2.10637,1
 .\Bq,0,3.83258,2.30637,1.\Bq,0,3.83258,2.50637,1.\Bq,0,3.83258,2.70637
 ,1.\Bq,0,3.83258,2.90637,1.\Bq,0,3.83258,3.10637,1.\Bq,0,3.83258,3.306
 37,1.\Bq,0,3.83258,3.50637,1.\Bq,0,3.83258,3.70637,1.\Bq,0,4.03258,-3.
 89363,1.\Bq,0,4.03258,-3.69363,1.\Bq,0,4.03258,-3.49363,1.\Bq,0,4.0325
 8,-3.29363,1.\Bq,0,4.03258,-3.09363,1.\Bq,0,4.03258,-2.89363,1.\Bq,0,4
 .03258,-2.69363,1.\Bq,0,4.03258,-2.49363,1.\Bq,0,4.03258,-2.29363,1.\B
 q,0,4.03258,-2.09363,1.\Bq,0,4.03258,-1.89363,1.\Bq,0,4.03258,-1.69363
 ,1.\Bq,0,4.03258,-1.49363,1.\Bq,0,4.03258,-1.29363,1.\Bq,0,4.03258,-1.
 09363,1.\Bq,0,4.03258,-0.89363,1.\Bq,0,4.03258,-0.69363,1.\Bq,0,4.0325
 8,-0.49363,1.\Bq,0,4.03258,-0.29363,1.\Bq,0,4.03258,-0.09363,1.\Bq,0,4
 .03258,0.10637,1.\Bq,0,4.03258,0.30637,1.\Bq,0,4.03258,0.50637,1.\Bq,0
 ,4.03258,0.70637,1.\Bq,0,4.03258,0.90637,1.\Bq,0,4.03258,1.10637,1.\Bq
 ,0,4.03258,1.30637,1.\Bq,0,4.03258,1.50637,1.\Bq,0,4.03258,1.70637,1.\
 Bq,0,4.03258,1.90637,1.\Bq,0,4.03258,2.10637,1.\Bq,0,4.03258,2.30637,1
 .\Bq,0,4.03258,2.50637,1.\Bq,0,4.03258,2.70637,1.\Bq,0,4.03258,2.90637
 ,1.\Bq,0,4.03258,3.10637,1.\Bq,0,4.03258,3.30637,1.\Bq,0,4.03258,3.506
 37,1.\Bq,0,4.03258,3.70637,1.\Bq,0,4.23258,-3.89363,1.\Bq,0,4.23258,-3
 .69363,1.\Bq,0,4.23258,-3.49363,1.\Bq,0,4.23258,-3.29363,1.\Bq,0,4.232
 58,-3.09363,1.\Bq,0,4.23258,-2.89363,1.\Bq,0,4.23258,-2.69363,1.\Bq,0,
 4.23258,-2.49363,1.\Bq,0,4.23258,-2.29363,1.\Bq,0,4.23258,-2.09363,1.\
 Bq,0,4.23258,-1.89363,1.\Bq,0,4.23258,-1.69363,1.\Bq,0,4.23258,-1.4936
 3,1.\Bq,0,4.23258,-1.29363,1.\Bq,0,4.23258,-1.09363,1.\Bq,0,4.23258,-0
 .89363,1.\Bq,0,4.23258,-0.69363,1.\Bq,0,4.23258,-0.49363,1.\Bq,0,4.232
 58,-0.29363,1.\Bq,0,4.23258,-0.09363,1.\Bq,0,4.23258,0.10637,1.\Bq,0,4
 .23258,0.30637,1.\Bq,0,4.23258,0.50637,1.\Bq,0,4.23258,0.70637,1.\Bq,0
 ,4.23258,0.90637,1.\Bq,0,4.23258,1.10637,1.\Bq,0,4.23258,1.30637,1.\Bq
 ,0,4.23258,1.50637,1.\Bq,0,4.23258,1.70637,1.\Bq,0,4.23258,1.90637,1.\
 Bq,0,4.23258,2.10637,1.\Bq,0,4.23258,2.30637,1.\Bq,0,4.23258,2.50637,1
 .\Bq,0,4.23258,2.70637,1.\Bq,0,4.23258,2.90637,1.\Bq,0,4.23258,3.10637
 ,1.\Bq,0,4.23258,3.30637,1.\Bq,0,4.23258,3.50637,1.\Bq,0,4.23258,3.706
 37,1.\Bq,0,4.43258,-3.89363,1.\Bq,0,4.43258,-3.69363,1.\Bq,0,4.43258,-
 3.49363,1.\Bq,0,4.43258,-3.29363,1.\Bq,0,4.43258,-3.09363,1.\Bq,0,4.43
 258,-2.89363,1.\Bq,0,4.43258,-2.69363,1.\Bq,0,4.43258,-2.49363,1.\Bq,0
 ,4.43258,-2.29363,1.\Bq,0,4.43258,-2.09363,1.\Bq,0,4.43258,-1.89363,1.
 \Bq,0,4.43258,-1.69363,1.\Bq,0,4.43258,-1.49363,1.\Bq,0,4.43258,-1.293
 63,1.\Bq,0,4.43258,-1.09363,1.\Bq,0,4.43258,-0.89363,1.\Bq,0,4.43258,-
 0.69363,1.\Bq,0,4.43258,-0.49363,1.\Bq,0,4.43258,-0.29363,1.\Bq,0,4.43
 258,-0.09363,1.\Bq,0,4.43258,0.10637,1.\Bq,0,4.43258,0.30637,1.\Bq,0,4
 .43258,0.50637,1.\Bq,0,4.43258,0.70637,1.\Bq,0,4.43258,0.90637,1.\Bq,0
 ,4.43258,1.10637,1.\Bq,0,4.43258,1.30637,1.\Bq,0,4.43258,1.50637,1.\Bq
 ,0,4.43258,1.70637,1.\Bq,0,4.43258,1.90637,1.\Bq,0,4.43258,2.10637,1.\
 Bq,0,4.43258,2.30637,1.\Bq,0,4.43258,2.50637,1.\Bq,0,4.43258,2.70637,1
 .\Bq,0,4.43258,2.90637,1.\Bq,0,4.43258,3.10637,1.\Bq,0,4.43258,3.30637
 ,1.\Bq,0,4.43258,3.50637,1.\Bq,0,4.43258,3.70637,1.\Bq,0,4.63258,-3.89
 363,1.\Bq,0,4.63258,-3.69363,1.\Bq,0,4.63258,-3.49363,1.\Bq,0,4.63258,
 -3.29363,1.\Bq,0,4.63258,-3.09363,1.\Bq,0,4.63258,-2.89363,1.\Bq,0,4.6
 3258,-2.69363,1.\Bq,0,4.63258,-2.49363,1.\Bq,0,4.63258,-2.29363,1.\Bq,
 0,4.63258,-2.09363,1.\Bq,0,4.63258,-1.89363,1.\Bq,0,4.63258,-1.69363,1
 .\Bq,0,4.63258,-1.49363,1.\Bq,0,4.63258,-1.29363,1.\Bq,0,4.63258,-1.09
 363,1.\Bq,0,4.63258,-0.89363,1.\Bq,0,4.63258,-0.69363,1.\Bq,0,4.63258,
 -0.49363,1.\Bq,0,4.63258,-0.29363,1.\Bq,0,4.63258,-0.09363,1.\Bq,0,4.6
 3258,0.10637,1.\Bq,0,4.63258,0.30637,1.\Bq,0,4.63258,0.50637,1.\Bq,0,4
 .63258,0.70637,1.\Bq,0,4.63258,0.90637,1.\Bq,0,4.63258,1.10637,1.\Bq,0
 ,4.63258,1.30637,1.\Bq,0,4.63258,1.50637,1.\Bq,0,4.63258,1.70637,1.\Bq
 ,0,4.63258,1.90637,1.\Bq,0,4.63258,2.10637,1.\Bq,0,4.63258,2.30637,1.\
 Bq,0,4.63258,2.50637,1.\Bq,0,4.63258,2.70637,1.\Bq,0,4.63258,2.90637,1
 .\Bq,0,4.63258,3.10637,1.\Bq,0,4.63258,3.30637,1.\Bq,0,4.63258,3.50637
 ,1.\Bq,0,4.63258,3.70637,1.\Bq,0,4.83258,-3.89363,1.\Bq,0,4.83258,-3.6
 9363,1.\Bq,0,4.83258,-3.49363,1.\Bq,0,4.83258,-3.29363,1.\Bq,0,4.83258
 ,-3.09363,1.\Bq,0,4.83258,-2.89363,1.\Bq,0,4.83258,-2.69363,1.\Bq,0,4.
 83258,-2.49363,1.\Bq,0,4.83258,-2.29363,1.\Bq,0,4.83258,-2.09363,1.\Bq
 ,0,4.83258,-1.89363,1.\Bq,0,4.83258,-1.69363,1.\Bq,0,4.83258,-1.49363,
 1.\Bq,0,4.83258,-1.29363,1.\Bq,0,4.83258,-1.09363,1.\Bq,0,4.83258,-0.8
 9363,1.\Bq,0,4.83258,-0.69363,1.\Bq,0,4.83258,-0.49363,1.\Bq,0,4.83258
 ,-0.29363,1.\Bq,0,4.83258,-0.09363,1.\Bq,0,4.83258,0.10637,1.\Bq,0,4.8
 3258,0.30637,1.\Bq,0,4.83258,0.50637,1.\Bq,0,4.83258,0.70637,1.\Bq,0,4
 .83258,0.90637,1.\Bq,0,4.83258,1.10637,1.\Bq,0,4.83258,1.30637,1.\Bq,0
 ,4.83258,1.50637,1.\Bq,0,4.83258,1.70637,1.\Bq,0,4.83258,1.90637,1.\Bq
 ,0,4.83258,2.10637,1.\Bq,0,4.83258,2.30637,1.\Bq,0,4.83258,2.50637,1.\
 Bq,0,4.83258,2.70637,1.\Bq,0,4.83258,2.90637,1.\Bq,0,4.83258,3.10637,1
 .\Bq,0,4.83258,3.30637,1.\Bq,0,4.83258,3.50637,1.\Bq,0,4.83258,3.70637
 ,1.\Bq,0,5.03258,-3.89363,1.\Bq,0,5.03258,-3.69363,1.\Bq,0,5.03258,-3.
 49363,1.\Bq,0,5.03258,-3.29363,1.\Bq,0,5.03258,-3.09363,1.\Bq,0,5.0325
 8,-2.89363,1.\Bq,0,5.03258,-2.69363,1.\Bq,0,5.03258,-2.49363,1.\Bq,0,5
 .03258,-2.29363,1.\Bq,0,5.03258,-2.09363,1.\Bq,0,5.03258,-1.89363,1.\B
 q,0,5.03258,-1.69363,1.\Bq,0,5.03258,-1.49363,1.\Bq,0,5.03258,-1.29363
 ,1.\Bq,0,5.03258,-1.09363,1.\Bq,0,5.03258,-0.89363,1.\Bq,0,5.03258,-0.
 69363,1.\Bq,0,5.03258,-0.49363,1.\Bq,0,5.03258,-0.29363,1.\Bq,0,5.0325
 8,-0.09363,1.\Bq,0,5.03258,0.10637,1.\Bq,0,5.03258,0.30637,1.\Bq,0,5.0
 3258,0.50637,1.\Bq,0,5.03258,0.70637,1.\Bq,0,5.03258,0.90637,1.\Bq,0,5
 .03258,1.10637,1.\Bq,0,5.03258,1.30637,1.\Bq,0,5.03258,1.50637,1.\Bq,0
 ,5.03258,1.70637,1.\Bq,0,5.03258,1.90637,1.\Bq,0,5.03258,2.10637,1.\Bq
 ,0,5.03258,2.30637,1.\Bq,0,5.03258,2.50637,1.\Bq,0,5.03258,2.70637,1.\
 Bq,0,5.03258,2.90637,1.\Bq,0,5.03258,3.10637,1.\Bq,0,5.03258,3.30637,1
 .\Bq,0,5.03258,3.50637,1.\Bq,0,5.03258,3.70637,1.\\Version=ES64L-G16Re
 vA.03\HF=-769.5817765\S2=0.\S2-1=0.\S2A=0.\RMSD=8.950e-09\Dipole=0.,0.
 ,0.\Quadrupole=5.6771495,6.2427551,-11.9199046,0.,0.,0.\PG=C01 [X(C20H
 12)]\\@


 The best way to pay for a lovely moment is to enjoy it.
 -- Richard Bach
 Job cpu time:       0 days  2 hours  2 minutes 36.3 seconds.
 Elapsed time:       0 days  0 hours  9 minutes  2.2 seconds.
 File lengths (MBytes):  RWF=    286 Int=      0 D2E=      0 Chk=     32 Scr=      1
 Normal termination of Gaussian 16 at Mon Sep 16 07:42:06 2024.
